/*--------------------------------*- C++ -*----------------------------------*\
| =========                 |                                                 |
| \\      /  F ield         | OpenFOAM: The Open Source CFD Toolbox           |
|  \\    /   O peration     | Version:  2406                                  |
|   \\  /    A nd           | Website:  www.openfoam.com                      |
|    \\/     M anipulation  |                                                 |
\*---------------------------------------------------------------------------*/
FoamFile
{
    version     2.0;
    format      ascii;
    arch        "LSB;label=32;scalar=64";
    class       volScalarField;
    location    "100";
    object      p;
}
// * * * * * * * * * * * * * * * * * * * * * * * * * * * * * * * * * * * * * //

dimensions      [0 2 -2 0 0 0 0];

internalField   nonuniform List<scalar> 
12225
(
-1.87709
-2.70439
-2.89593
-2.9133
-2.96592
-3.00874
-3.02134
-3.01221
-2.98435
-2.93518
-2.86103
-2.75629
-2.61335
-2.41065
-2.13468
-1.62124
-0.993932
2.36114
-1.97965
-2.62909
-2.827
-2.86899
-2.92861
-2.9737
-2.98811
-2.98014
-2.95283
-2.90378
-2.82941
-2.72422
-2.58103
-2.37989
-2.11264
-1.6645
-1.18151
-0.364263
-2.14571
-2.62137
-2.81857
-2.87198
-2.92923
-2.97321
-2.98844
-2.98134
-2.95502
-2.90742
-2.83526
-2.73364
-2.59652
-2.40851
-2.16706
-1.81289
-1.51218
-1.24932
-2.28219
-2.6311
-2.82432
-2.88496
-2.93787
-2.97986
-2.99565
-2.98944
-2.96441
-2.91897
-2.85025
-2.75426
-2.6266
-2.45729
-2.24929
-1.9809
-1.7795
-1.6281
-2.39576
-2.65094
-2.83171
-2.89797
-2.94743
-2.98734
-3.00381
-2.9989
-2.97575
-2.93335
-2.86941
-2.78104
-2.66571
-2.51866
-2.34699
-2.15023
-2.0186
-1.9688
-2.49602
-2.68096
-2.84275
-2.91266
-2.95957
-2.99727
-3.01449
-3.01138
-2.99083
-2.95249
-2.89477
-2.816
-2.71553
-2.59295
-2.45799
-2.32149
-2.24815
-2.27214
-2.58622
-2.71907
-2.85898
-2.93013
-2.97509
-3.01059
-3.02858
-3.02776
-3.01057
-2.97729
-2.92714
-2.85964
-2.77584
-2.6785
-2.57864
-2.49177
-2.46338
-2.52527
-2.66793
-2.76286
-2.88065
-2.95055
-2.99402
-3.02755
-3.04635
-3.04829
-3.0352
-3.00793
-2.96652
-2.91155
-2.84539
-2.77282
-2.7049
-2.65748
-2.66149
-2.74042
-2.74265
-2.81049
-2.9076
-2.97414
-3.0164
-3.04838
-3.06811
-3.07322
-3.06493
-3.04451
-3.01274
-2.97108
-2.92278
-2.87352
-2.83357
-2.81674
-2.84349
-2.92902
-2.81183
-2.86062
-2.93951
-3.00122
-3.04236
-3.07335
-3.09421
-3.10285
-3.09998
-3.0871
-3.0656
-3.03755
-3.00662
-2.97863
-2.96241
-2.96892
-3.01132
-3.09828
-2.87674
-2.91223
-2.97585
-3.03197
-3.07201
-3.10262
-3.12495
-3.13744
-3.1405
-3.13566
-3.12476
-3.1102
-3.09569
-3.08658
-3.09008
-3.11427
-3.1673
-3.25331
-2.93337
-2.96037
-3.01265
-3.06353
-3.10256
-3.13333
-3.15735
-3.17365
-3.18246
-3.18527
-3.18407
-3.18141
-3.18075
-3.18671
-3.20501
-3.24149
-3.30121
-3.38584
-2.98733
-3.00839
-3.05159
-3.09761
-3.13575
-3.1671
-3.19313
-3.21344
-3.22816
-3.23864
-3.2469
-3.25546
-3.26738
-3.28649
-3.31707
-3.36318
-3.42775
-3.51103
-3.04684
-3.06336
-3.09877
-3.14006
-3.17742
-3.20994
-3.23874
-3.26389
-3.28553
-3.30477
-3.3235
-3.34395
-3.36875
-3.40073
-3.44282
-3.49748
-3.5661
-3.64817
-3.11204
-3.12531
-3.15476
-3.19206
-3.22899
-3.26347
-3.29602
-3.32691
-3.3564
-3.38534
-3.41521
-3.44784
-3.48524
-3.52933
-3.58188
-3.64404
-3.71625
-3.79776
-3.18272
-3.19395
-3.21955
-3.25429
-3.29163
-3.32904
-3.36642
-3.40404
-3.44216
-3.48142
-3.52275
-3.56742
-3.61674
-3.67196
-3.73389
-3.80289
-3.87877
-3.96088
-3.2578
-3.26813
-3.29213
-3.32633
-3.36549
-3.40702
-3.45044
-3.49577
-3.54317
-3.593
-3.64573
-3.70195
-3.76241
-3.82774
-3.89826
-3.97383
-4.05395
-4.13816
-3.33422
-3.34478
-3.3695
-3.40565
-3.44856
-3.49571
-3.54639
-3.60036
-3.65752
-3.71791
-3.78165
-3.84882
-3.91965
-3.99438
-4.07303
-4.15526
-4.24047
-4.32836
-3.40462
-3.41684
-3.44502
-3.48622
-3.53551
-3.5902
-3.64955
-3.71312
-3.7805
-3.85143
-3.92575
-4.00328
-4.08389
-4.16756
-4.25416
-4.34333
-4.43447
-4.52745
-3.44178
-3.45686
-3.49111
-3.53996
-3.5971
-3.65963
-3.72706
-3.799
-3.87484
-3.95409
-4.03649
-4.12177
-4.20974
-4.30026
-4.39309
-4.48788
-4.58409
-4.68171
-3.44975
-3.46832
-3.51009
-3.56755
-3.63224
-3.70149
-3.77548
-3.85392
-3.93596
-4.02108
-4.10902
-4.19955
-4.29248
-4.38763
-4.48469
-4.58333
-4.68308
-4.784
-3.43666
-3.46065
-3.51304
-3.58082
-3.65301
-3.7284
-3.80831
-3.89229
-3.97933
-4.06896
-4.16108
-4.25553
-4.35216
-4.45072
-4.5509
-4.65239
-4.75479
-4.85826
-3.40569
-3.4384
-3.50567
-3.58496
-3.6639
-3.7448
-3.8301
-3.91879
-4.00975
-4.10282
-4.1981
-4.29552
-4.39489
-4.49596
-4.59842
-4.70201
-4.80641
-4.91179
-3.35865
-3.40579
-3.49332
-3.58408
-3.66835
-3.7543
-3.84455
-3.93706
-4.03094
-4.12659
-4.22426
-4.32387
-4.42523
-4.52809
-4.63218
-4.7373
-4.84317
-4.94988
-3.29614
-3.36716
-3.48069
-3.58094
-3.66872
-3.75949
-3.85416
-3.9495
-4.04546
-4.14301
-4.24245
-4.34364
-4.4464
-4.55051
-4.65575
-4.76196
-4.86887
-4.97641
-3.21807
-3.32768
-3.47125
-3.57697
-3.66687
-3.76233
-3.86053
-3.95773
-4.0551
-4.15405
-4.25477
-4.35706
-4.46076
-4.56573
-4.67179
-4.77877
-4.88642
-4.99444
-3.1234
-3.29421
-3.46636
-3.57205
-3.66406
-3.76413
-3.86476
-3.96301
-4.06139
-4.16137
-4.26295
-4.36595
-4.47026
-4.57578
-4.68237
-4.78988
-4.89804
-5.00642
-3.00565
-3.27302
-3.46463
-3.56352
-3.65896
-3.76405
-3.86643
-3.96533
-4.06451
-4.16528
-4.26749
-4.37098
-4.47573
-4.58165
-4.68862
-4.79652
-4.90516
-5.01444
-2.8487
-3.26515
-3.47113
-3.55679
-3.65457
-3.76393
-3.86732
-3.96634
-4.06582
-4.1669
-4.26934
-4.37303
-4.47797
-4.5841
-4.69125
-4.79934
-4.9082
-5.01926
-2.70886
-3.30888
-3.53663
-3.59969
-3.6863
-3.79134
-3.89145
-3.9878
-4.08526
-4.18465
-4.28554
-4.3878
-4.49141
-4.59628
-4.70221
-4.80899
-4.91574
-5.02173
-4.7712
-4.75511
-4.75318
-4.75692
-4.76157
-4.76675
-4.77273
-4.7797
-4.7875
-4.79613
-4.80548
-4.81561
-4.82645
-4.83814
-4.85062
-4.8641
-4.8786
-4.89444
-4.91174
-4.93097
-4.95238
-4.9766
-5.00406
-5.03558
-5.07183
-5.11386
-5.16262
-5.21947
-5.2857
-5.36303
-5.45308
-5.55798
-5.67969
-5.82063
-5.98303
-6.1695
-6.38234
-6.62412
-6.89696
-7.20313
-7.54425
-7.92197
-8.33716
-8.79059
-9.28213
-9.81158
-10.3778
-10.9795
-11.6147
-12.2812
-12.9764
-13.6976
-14.4414
-15.205
-15.9848
-16.7779
-17.5807
-18.3904
-19.2037
-20.018
-20.8301
-21.6379
-22.4384
-23.2299
-24.0097
-24.7764
-25.5275
-26.2619
-26.9776
-27.6736
-28.3481
-29.0005
-29.6293
-30.234
-30.8136
-31.3676
-31.8951
-32.3958
-32.8686
-33.3135
-33.7293
-34.1158
-34.472
-34.7979
-35.0926
-35.3564
-35.5886
-35.7894
-35.9582
-36.0956
-36.202
-36.2776
-36.3219
-36.3342
-36.3135
-36.2588
-36.1691
-36.0434
-35.8813
-35.6831
-35.4487
-35.178
-34.8704
-34.5257
-34.1426
-33.7208
-33.2591
-32.757
-32.2132
-31.6271
-30.9974
-30.3231
-29.6025
-28.8348
-28.0178
-27.1502
-26.2298
-25.255
-24.2237
-23.1344
-21.9852
-20.7741
-19.4992
-18.159
-16.7531
-15.282
-13.7477
-12.1534
-10.5045
-8.808
-7.07304
-5.31041
-3.53304
-1.75477
0.0090881
1.7433
3.43219
5.06118
6.61668
8.08725
9.46342
10.738
11.9062
12.9654
13.9152
14.7572
15.4947
16.1326
16.6768
17.1345
17.5137
17.8232
18.0701
18.2601
18.3983
18.4906
18.5427
18.5604
18.5489
18.5132
18.4577
18.3865
18.3032
18.211
18.1127
18.0109
17.9078
17.8053
17.7053
17.6093
17.5189
17.4357
17.3613
17.2976
17.2471
17.2134
17.2039
17.2258
17.3206
17.4499
-4.79028
-4.77563
-4.77385
-4.77641
-4.77937
-4.78246
-4.78599
-4.79013
-4.79478
-4.79997
-4.8056
-4.81174
-4.81832
-4.82544
-4.83311
-4.84151
-4.85068
-4.8609
-4.87229
-4.88522
-4.89997
-4.91704
-4.93687
-4.96015
-4.98751
-5.01991
-5.05827
-5.10384
-5.15792
-5.22215
-5.29827
-5.38837
-5.49466
-5.61969
-5.76606
-5.93667
-6.13435
-6.36206
-6.62248
-6.91824
-7.25144
-7.62394
-8.03684
-8.49087
-8.9859
-9.5214
-10.096
-10.7081
-11.3552
-12.0348
-12.7439
-13.4793
-14.2376
-15.0154
-15.8092
-16.6157
-17.4314
-18.2533
-19.0781
-19.9031
-20.7254
-21.5425
-22.3519
-23.1514
-23.9388
-24.7123
-25.4701
-26.2105
-26.9319
-27.6331
-28.3127
-28.9696
-29.6028
-30.2115
-30.7948
-31.3522
-31.883
-32.3866
-32.8626
-33.3104
-33.7295
-34.1195
-34.4799
-34.8102
-35.1101
-35.3792
-35.617
-35.8231
-35.9966
-36.1376
-36.2463
-36.3226
-36.3659
-36.376
-36.3526
-36.2954
-36.2044
-36.0791
-35.9191
-35.7237
-35.4925
-35.225
-34.9208
-34.5793
-34.1997
-33.7812
-33.3231
-32.8246
-32.2849
-31.7031
-31.078
-30.4086
-29.6936
-28.9317
-28.1211
-27.2602
-26.347
-25.3795
-24.356
-23.2747
-22.1337
-20.9309
-19.6643
-18.3325
-16.935
-15.4722
-13.9459
-12.3594
-10.7176
-9.02731
-7.29743
-5.53862
-3.76343
-1.98574
-0.220602
1.51651
3.20996
4.84481
6.40733
7.88567
9.27005
10.5529
11.7292
12.7959
13.7527
14.6011
15.3447
15.9882
16.5381
17.0016
17.3866
17.7014
17.9532
18.1479
18.291
18.3884
18.4457
18.4686
18.4623
18.4317
18.3813
18.3149
18.2363
18.1487
18.0548
17.9572
17.858
17.7594
17.663
17.5705
17.4834
17.4034
17.332
17.2713
17.2236
17.1922
17.1833
17.2013
17.2796
17.3768
-4.77877
-4.76604
-4.76445
-4.76712
-4.77053
-4.77428
-4.7786
-4.7836
-4.78918
-4.79533
-4.80196
-4.80911
-4.81671
-4.82487
-4.83355
-4.84293
-4.85308
-4.86424
-4.87659
-4.89051
-4.90628
-4.92445
-4.9455
-4.97015
-4.99912
-5.03344
-5.07413
-5.12258
-5.18022
-5.24888
-5.3305
-5.42737
-5.54191
-5.67686
-5.83498
-6.01924
-6.23248
-6.47752
-6.75686
-7.07277
-7.42697
-7.82077
-8.2548
-8.72922
-9.24343
-9.79642
-10.3865
-11.0117
-11.6696
-12.3573
-13.072
-13.8106
-14.5697
-15.3463
-16.1371
-16.9389
-17.7486
-18.5633
-19.38
-20.196
-21.0089
-21.8161
-22.6154
-23.4046
-24.1817
-24.9449
-25.6925
-26.423
-27.1347
-27.8264
-28.4969
-29.145
-29.7697
-30.3702
-30.9455
-31.495
-32.0181
-32.5141
-32.9824
-33.4228
-33.8347
-34.2178
-34.5717
-34.8962
-35.1909
-35.4557
-35.69
-35.8933
-36.0646
-36.2038
-36.3109
-36.3855
-36.4271
-36.4353
-36.4098
-36.3504
-36.2571
-36.1296
-35.9675
-35.7702
-35.5373
-35.2683
-34.9628
-34.62
-34.2392
-33.8196
-33.3605
-32.8612
-32.321
-31.7388
-31.1139
-30.4449
-29.7308
-28.9701
-28.1612
-27.3021
-26.3911
-25.426
-24.4051
-23.3266
-22.1884
-20.9885
-19.725
-18.3964
-17.0022
-15.543
-14.0203
-12.4374
-10.799
-9.11178
-7.38426
-5.62712
-3.85256
-2.0746
-0.308117
1.43112
3.12743
4.76552
6.33147
7.81311
9.20039
10.4856
11.6634
12.731
13.6881
14.5366
15.2805
15.9249
16.4767
16.9433
17.3325
17.6516
17.9069
18.1047
18.2506
18.3505
18.4103
18.4356
18.4315
18.4031
18.3546
18.2901
18.2132
18.1272
18.0348
17.9385
17.8406
17.7431
17.6477
17.556
17.4697
17.3902
17.3192
17.2584
17.2101
17.177
17.164
17.1725
17.2221
17.2563
-4.76806
-4.75894
-4.75795
-4.76044
-4.76376
-4.76745
-4.77164
-4.77646
-4.78181
-4.78767
-4.79396
-4.80071
-4.80787
-4.81552
-4.82365
-4.83242
-4.84189
-4.85233
-4.86391
-4.87703
-4.89199
-4.90938
-4.9297
-4.95377
-4.98238
-5.01667
-5.05784
-5.10743
-5.16715
-5.23906
-5.32541
-5.42881
-5.55197
-5.69787
-5.86945
-6.06971
-6.3014
-6.56711
-6.86891
-7.20858
-7.58719
-8.00542
-8.46323
-8.96017
-9.49511
-10.0666
-10.6727
-11.3113
-11.9797
-12.6754
-13.3954
-14.1369
-14.8969
-15.6723
-16.4603
-17.258
-18.0623
-18.8707
-19.6804
-20.4889
-21.2936
-22.0925
-22.8833
-23.6639
-24.4324
-25.187
-25.9261
-26.6481
-27.3516
-28.0354
-28.6983
-29.3391
-29.9568
-30.5506
-31.1197
-31.6632
-32.1805
-32.671
-33.134
-33.5691
-33.9758
-34.3538
-34.7027
-35.0223
-35.3124
-35.5727
-35.803
-36.0025
-36.1706
-36.3069
-36.4115
-36.484
-36.5239
-36.5306
-36.5038
-36.4434
-36.3491
-36.2207
-36.0576
-35.8596
-35.6262
-35.3569
-35.0512
-34.7083
-34.3275
-33.9082
-33.4497
-32.9514
-32.4124
-31.832
-31.2093
-30.543
-29.8321
-29.075
-28.27
-27.4153
-26.5088
-25.5484
-24.5325
-23.4589
-22.3256
-21.1303
-19.8713
-18.547
-17.1569
-15.7013
-14.1817
-12.601
-10.9637
-9.27634
-7.5472
-5.78679
-4.00738
-2.22304
-0.448965
1.29873
3.00387
4.65079
6.22512
7.71435
9.10814
10.3986
11.5804
12.6511
13.6107
14.4615
15.2078
15.8555
16.4113
16.8826
17.2764
17.5993
17.858
18.0586
18.2072
18.3097
18.372
18.3997
18.398
18.3718
18.3255
18.263
18.1881
18.1038
18.013
17.9183
17.8217
17.7254
17.6311
17.5403
17.4547
17.3757
17.3047
17.2435
17.1939
17.1581
17.1393
17.1366
17.16
17.1511
-4.7536
-4.7486
-4.74824
-4.75053
-4.75383
-4.75759
-4.76182
-4.76662
-4.77191
-4.77766
-4.78376
-4.79026
-4.79708
-4.80431
-4.81194
-4.82014
-4.82898
-4.83874
-4.84962
-4.86205
-4.87639
-4.89328
-4.91332
-4.93744
-4.9666
-5.00209
-5.04536
-5.0982
-5.16262
-5.24099
-5.33587
-5.45013
-5.58669
-5.74866
-5.93895
-6.16042
-6.41551
-6.70636
-7.0345
-7.40107
-7.80649
-8.25078
-8.73329
-9.25306
-9.80858
-10.3981
-11.0195
-11.6705
-12.3487
-13.0514
-13.776
-14.5197
-15.2798
-16.0536
-16.8383
-17.6313
-18.4299
-19.2316
-20.0338
-20.8341
-21.6302
-22.42
-23.2014
-23.9724
-24.7312
-25.476
-26.2054
-26.9177
-27.6116
-28.2859
-28.9394
-29.5712
-30.1801
-30.7655
-31.3264
-31.8622
-32.3721
-32.8555
-33.3119
-33.7406
-34.1413
-34.5136
-34.857
-35.1713
-35.4563
-35.7117
-35.9373
-36.1323
-36.2962
-36.4287
-36.5299
-36.5992
-36.6363
-36.6406
-36.6117
-36.5494
-36.4534
-36.3235
-36.1591
-35.9599
-35.7255
-35.4555
-35.1491
-34.8059
-34.4249
-34.0059
-33.5479
-33.0507
-32.5132
-31.935
-31.3148
-30.6519
-29.9447
-29.1921
-28.392
-27.5428
-26.6421
-25.6882
-24.6791
-23.6127
-22.4867
-21.299
-20.0475
-18.7307
-17.3478
-15.8989
-14.385
-12.8088
-11.1744
-9.48791
-7.75753
-5.99353
-4.20852
-2.41663
-0.63371
1.12374
2.83886
4.49554
6.07895
7.57626
8.97701
10.2733
11.46
12.5351
13.499
14.3545
15.1063
15.76
16.322
16.7989
17.1976
17.5251
17.7878
17.9923
18.1445
18.2506
18.3165
18.3476
18.3492
18.3262
18.2829
18.2233
18.1511
18.0694
17.981
17.8884
17.7939
17.6994
17.6067
17.5173
17.4327
17.3544
17.2837
17.222
17.171
17.132
17.107
17.0929
17.0943
17.0557
-4.73501
-4.73485
-4.73528
-4.73736
-4.7406
-4.74439
-4.74862
-4.75337
-4.75854
-4.76411
-4.76998
-4.77618
-4.78262
-4.78942
-4.79656
-4.80423
-4.81252
-4.82176
-4.83217
-4.84425
-4.85844
-4.87549
-4.89614
-4.92148
-4.95268
-4.99128
-5.039
-5.09796
-5.17045
-5.25915
-5.36686
-5.49661
-5.65138
-5.83416
-6.04765
-6.29434
-6.57615
-6.89466
-7.25077
-7.64495
-8.07703
-8.54649
-9.05223
-9.59294
-10.1669
-10.7721
-11.4066
-12.068
-12.754
-13.4622
-14.19
-14.9349
-15.6943
-16.4658
-17.2468
-18.0348
-18.8274
-19.6221
-20.4166
-21.2087
-21.996
-22.7767
-23.5486
-24.3099
-25.0588
-25.7937
-26.5129
-27.2152
-27.8992
-28.5635
-29.2073
-29.8294
-30.4289
-31.0051
-31.5571
-32.0843
-32.586
-33.0615
-33.5104
-33.932
-34.326
-34.6918
-35.0292
-35.3378
-35.6174
-35.8677
-36.0884
-36.279
-36.4386
-36.5672
-36.6647
-36.7308
-36.7648
-36.7664
-36.7352
-36.6708
-36.573
-36.4414
-36.2756
-36.0751
-35.8398
-35.5689
-35.262
-34.9183
-34.5374
-34.1187
-33.6615
-33.1655
-32.6298
-32.0537
-31.4364
-30.7767
-30.0735
-29.3253
-28.5303
-27.6865
-26.7921
-25.8452
-24.8436
-23.7853
-22.6678
-21.4889
-20.2465
-18.9387
-17.5646
-16.1238
-14.6169
-13.0461
-11.4151
-9.72967
-7.99793
-6.23024
-4.43934
-2.6399
-0.848248
0.918427
2.64277
4.30818
5.89959
7.404
8.81101
10.113
11.3053
12.3861
13.3565
14.2193
14.9786
15.6395
16.2082
16.6912
17.0957
17.4284
17.6962
17.9054
18.0623
18.173
18.2433
18.2788
18.2847
18.2658
18.2265
18.1708
18.1021
18.0237
17.9385
17.8488
17.7569
17.6648
17.5742
17.4865
17.4034
17.326
17.2557
17.1937
17.1411
17.0987
17.0672
17.0421
17.025
16.9636
-4.71234
-4.7176
-4.719
-4.72086
-4.72401
-4.72782
-4.73201
-4.73665
-4.74165
-4.74698
-4.75252
-4.7583
-4.76425
-4.77048
-4.77698
-4.78398
-4.7916
-4.80019
-4.81007
-4.82179
-4.83592
-4.85333
-4.87494
-4.90203
-4.93603
-4.97876
-5.03223
-5.09887
-5.18126
-5.28232
-5.40499
-5.55237
-5.72732
-5.93264
-6.17064
-6.44334
-6.75211
-7.09794
-7.48111
-7.90155
-8.35859
-8.85129
-9.37826
-9.93795
-10.5285
-11.148
-11.7942
-12.4651
-13.1583
-13.8717
-14.6027
-15.349
-16.1083
-16.8782
-17.6562
-18.4401
-19.2274
-20.016
-20.8036
-21.588
-22.3673
-23.1394
-23.9023
-24.6543
-25.3938
-26.119
-26.8285
-27.521
-28.1952
-28.8498
-29.4839
-30.0965
-30.6867
-31.2537
-31.7968
-32.3153
-32.8086
-33.276
-33.7171
-34.1314
-34.5183
-34.8775
-35.2086
-35.5112
-35.7852
-36.0302
-36.246
-36.4319
-36.5873
-36.7119
-36.8058
-36.8686
-36.8996
-36.8985
-36.8648
-36.7983
-36.6987
-36.5654
-36.3982
-36.1966
-35.9603
-35.6886
-35.3813
-35.0373
-34.6567
-34.2384
-33.7824
-33.2877
-32.754
-32.1803
-31.566
-30.9098
-30.2108
-29.4671
-28.6774
-27.8395
-26.952
-26.0126
-25.0194
-23.9701
-22.8623
-21.6933
-20.461
-19.1633
-17.7989
-16.3668
-14.8673
-13.3021
-11.6745
-9.99026
-8.25725
-6.48619
-4.69002
-2.88409
-1.08513
0.689016
2.42067
4.09296
5.69074
7.20117
8.61409
9.92225
11.1214
12.2102
13.1889
14.0598
14.8267
15.495
16.0706
16.5603
16.9711
17.3099
17.5835
17.7983
17.9608
18.077
18.1528
18.1936
18.2048
18.1909
18.1565
18.1054
18.0411
17.9669
17.8854
17.7993
17.7107
17.6215
17.5334
17.448
17.3666
17.2905
17.2208
17.1584
17.1042
17.0583
17.0205
16.9852
16.9524
16.8735
-4.68573
-4.6969
-4.69945
-4.70112
-4.70415
-4.70793
-4.71205
-4.71655
-4.72131
-4.72631
-4.73141
-4.73666
-4.74196
-4.74745
-4.75315
-4.75929
-4.76603
-4.77381
-4.783
-4.79426
-4.80828
-4.82609
-4.84881
-4.87796
-4.91521
-4.96268
-5.02265
-5.09782
-5.19101
-5.30529
-5.44364
-5.60911
-5.80438
-6.03194
-6.29368
-6.59115
-6.92519
-7.29626
-7.70417
-8.14838
-8.62787
-9.14141
-9.68739
-10.2641
-10.8697
-11.5022
-12.1594
-12.8393
-13.5397
-14.2584
-14.9931
-15.7417
-16.5017
-17.271
-18.0472
-18.8281
-19.6115
-20.3952
-21.177
-21.9551
-22.7272
-23.4916
-24.2464
-24.99
-25.7207
-26.437
-27.1374
-27.8206
-28.4855
-29.1309
-29.7559
-30.3594
-30.9406
-31.4989
-32.0334
-32.5436
-33.0289
-33.4886
-33.9222
-34.3293
-34.7095
-35.0622
-35.3871
-35.684
-35.9525
-36.1924
-36.4033
-36.5848
-36.736
-36.8569
-36.9474
-37.007
-37.0351
-37.0314
-36.9955
-36.927
-36.8256
-36.6908
-36.5222
-36.3196
-36.0824
-35.8102
-35.5023
-35.1584
-34.7779
-34.3603
-33.9053
-33.4122
-32.8805
-32.3093
-31.6979
-31.0452
-30.3501
-29.6112
-28.8268
-27.9954
-27.115
-26.1838
-25.1996
-24.16
-23.0623
-21.9038
-20.6821
-19.3949
-18.0403
-16.617
-15.1249
-13.5652
-11.9413
-10.2586
-8.52521
-6.75212
-4.95263
-3.14248
-1.33891
0.440034
2.17649
3.8536
5.45644
6.97238
8.39164
9.70724
10.9145
12.0114
12.998
13.8766
14.6512
15.3268
15.9097
16.4065
16.8242
17.1696
17.4497
17.671
17.84
17.9626
18.0447
18.0918
18.1091
18.1012
18.0725
18.0268
17.9677
17.8983
17.8215
17.7396
17.6548
17.5691
17.4841
17.4013
17.3221
17.2475
17.1785
17.116
17.0602
17.0109
16.9672
16.9228
16.8769
16.7851
-4.65564
-4.67318
-4.67708
-4.67858
-4.68147
-4.68518
-4.6892
-4.69349
-4.69792
-4.70246
-4.70698
-4.71149
-4.71592
-4.7204
-4.72497
-4.7299
-4.73542
-4.74199
-4.75009
-4.76051
-4.77407
-4.79199
-4.81558
-4.84661
-4.88702
-4.93917
-5.00562
-5.08928
-5.19312
-5.32029
-5.47376
-5.65641
-5.87071
-6.1188
-6.4022
-6.72199
-7.07859
-7.47203
-7.90173
-8.36684
-8.86606
-9.39797
-9.96082
-10.5528
-11.1721
-11.8165
-12.4841
-13.1729
-13.8805
-14.605
-15.3441
-16.0956
-16.8574
-17.6272
-18.4028
-19.1821
-19.9629
-20.743
-21.5206
-22.2935
-23.0599
-23.8179
-24.5659
-25.3022
-26.0253
-26.7337
-27.426
-28.101
-28.7576
-29.3947
-30.0113
-30.6065
-31.1797
-31.7299
-32.2567
-32.7593
-33.2371
-33.6897
-34.1165
-34.5171
-34.891
-35.2377
-35.557
-35.8486
-36.112
-36.3471
-36.5537
-36.731
-36.8785
-36.996
-37.0833
-37.1401
-37.1657
-37.1597
-37.1217
-37.0515
-36.9485
-36.8124
-36.6428
-36.4394
-36.2015
-35.9288
-35.6206
-35.2768
-34.8966
-34.4798
-34.0258
-33.5343
-33.0044
-32.4357
-31.8271
-31.1779
-30.4868
-29.7526
-28.9738
-28.1488
-27.2758
-26.3529
-25.3778
-24.3478
-23.26
-22.1119
-20.9004
-19.6232
-18.2778
-16.8629
-15.3779
-13.8241
-12.2044
-10.5245
-8.79271
-7.02002
-5.22017
-3.40898
-1.60395
0.176954
1.91597
3.59644
5.20373
6.72546
8.15135
9.4738
10.6881
11.792
12.7858
13.6716
14.4534
15.1363
15.7265
16.2306
16.6555
17.0082
17.2955
17.524
17.7002
17.83
17.9194
17.9736
17.9978
17.9967
17.9745
17.9351
17.882
17.8182
17.7466
17.6695
17.5892
17.5075
17.4261
17.3464
17.2696
17.1969
17.1289
17.0663
17.0092
16.9568
16.9077
16.8554
16.7988
16.6976
-4.6229
-4.64727
-4.65273
-4.6541
-4.65682
-4.66044
-4.6643
-4.66829
-4.67227
-4.67619
-4.67988
-4.68336
-4.68656
-4.6896
-4.69255
-4.69571
-4.69936
-4.70404
-4.71033
-4.71914
-4.73145
-4.74867
-4.77233
-4.80442
-4.84714
-4.9031
-4.97508
-5.06615
-5.17939
-5.31797
-5.48479
-5.68257
-5.91353
-6.17951
-6.48165
-6.82071
-7.19673
-7.60942
-8.05789
-8.54108
-9.05748
-9.60554
-10.1834
-10.7892
-11.4209
-12.0767
-12.7543
-13.4517
-14.1669
-14.8976
-15.6417
-16.3972
-17.1617
-17.9332
-18.7095
-19.4884
-20.268
-21.0461
-21.8208
-22.5901
-23.3523
-24.1055
-24.8482
-25.5787
-26.2956
-26.9975
-27.6831
-28.3513
-29.0008
-29.6308
-30.2403
-30.8285
-31.3946
-31.938
-32.458
-32.9539
-33.4254
-33.8718
-34.2926
-34.6874
-35.0559
-35.3974
-35.7118
-35.9987
-36.2577
-36.4887
-36.6913
-36.865
-37.0093
-37.1238
-37.2084
-37.2627
-37.2861
-37.2782
-37.2386
-37.1669
-37.0628
-36.9258
-36.7555
-36.5514
-36.3131
-36.04
-35.7319
-35.3882
-35.0085
-34.5926
-34.1398
-33.6498
-33.1219
-32.5555
-31.9498
-31.3039
-30.6169
-29.8873
-29.114
-28.2953
-27.4294
-26.5144
-25.5476
-24.5265
-23.4479
-22.3091
-21.1069
-19.8386
-18.5018
-17.0948
-15.6171
-14.0697
-12.4556
-10.7805
-9.05272
-7.28345
-5.48637
-3.67728
-1.8735
-0.0928051
1.6474
3.33049
4.94138
6.46728
7.89781
9.22534
10.445
11.5547
12.5545
13.4467
14.2352
14.925
15.5224
16.0338
16.4662
16.8265
17.1216
17.358
17.5421
17.68
17.7773
17.8394
17.8714
17.8778
17.863
17.8305
17.784
17.7265
17.6608
17.5892
17.5139
17.4367
17.3594
17.2831
17.2092
17.1386
17.0719
17.0095
16.9514
16.8962
16.8424
16.7834
16.7183
16.6104
-4.58873
-4.62054
-4.62777
-4.62904
-4.63155
-4.63502
-4.63863
-4.6422
-4.64554
-4.64857
-4.6511
-4.65312
-4.65455
-4.65552
-4.65612
-4.65667
-4.65752
-4.65929
-4.66266
-4.66868
-4.67851
-4.69373
-4.71612
-4.74787
-4.79144
-4.84964
-4.92544
-5.02206
-5.14264
-5.29034
-5.46798
-5.67813
-5.92276
-6.20347
-6.52112
-6.87616
-7.26838
-7.69721
-8.16157
-8.66021
-9.19146
-9.75365
-10.3448
-10.9631
-11.6065
-12.2728
-12.9601
-13.6662
-14.389
-15.1265
-15.8763
-16.6365
-17.4047
-18.179
-18.9572
-19.7372
-20.5169
-21.2944
-22.0678
-22.8351
-23.5947
-24.3447
-25.0837
-25.8101
-26.5224
-27.2195
-27.8999
-28.5627
-29.2068
-29.8312
-30.4351
-31.0176
-31.5781
-32.1158
-32.6303
-33.1208
-33.587
-34.0283
-34.4442
-34.8343
-35.1983
-35.5356
-35.8459
-36.1289
-36.3843
-36.6119
-36.8112
-36.9819
-37.1235
-37.2355
-37.318
-37.3704
-37.3921
-37.3827
-37.3419
-37.2692
-37.1644
-37.0267
-36.8561
-36.6516
-36.4132
-36.1402
-35.8323
-35.4889
-35.1101
-34.695
-34.2437
-33.7552
-33.2293
-32.6652
-32.0623
-31.4197
-30.7364
-30.0112
-29.2429
-28.43
-27.5706
-26.6624
-25.7031
-24.6895
-23.6189
-22.4881
-21.2941
-20.034
-18.7053
-17.3062
-15.8362
-14.2962
-12.6893
-11.0212
-9.29994
-7.53663
-5.74475
-3.9399
-2.13906
-0.360056
1.37953
3.0629
4.67486
6.20248
7.63531
8.96573
10.1889
11.3026
12.307
13.2045
13.9987
14.695
15.2992
15.8179
16.2579
16.6262
16.9295
17.1743
17.367
17.5135
17.6194
17.6902
17.7306
17.7453
17.7384
17.7136
17.6744
17.6238
17.5645
17.499
17.4292
17.3571
17.2841
17.2118
17.1411
17.073
17.0079
16.946
16.8871
16.8297
16.7719
16.7075
16.6356
16.5234
-4.55491
-4.59502
-4.60422
-4.60535
-4.60758
-4.61081
-4.61404
-4.61697
-4.61938
-4.62112
-4.62197
-4.62189
-4.62079
-4.61878
-4.61598
-4.61277
-4.60954
-4.60701
-4.60599
-4.60767
-4.61338
-4.62491
-4.64425
-4.67384
-4.71633
-4.77474
-4.85221
-4.95206
-5.07749
-5.23164
-5.41723
-5.63671
-5.89185
-6.18404
-6.51392
-6.88173
-7.28703
-7.7291
-8.20665
-8.71829
-9.26225
-9.83675
-10.4398
-11.0693
-11.7233
-12.3997
-13.0962
-13.8109
-14.5415
-15.286
-16.042
-16.8076
-17.5804
-18.3585
-19.1397
-19.9219
-20.7031
-21.4814
-22.2549
-23.0218
-23.7803
-24.5287
-25.2656
-25.9895
-26.6991
-27.3929
-28.07
-28.7291
-29.3693
-29.9897
-30.5895
-31.1679
-31.7242
-32.2578
-32.7681
-33.2546
-33.7168
-34.1542
-34.5663
-34.9529
-35.3133
-35.6474
-35.9547
-36.2348
-36.4874
-36.7124
-36.9092
-37.0776
-37.2171
-37.3273
-37.4082
-37.4592
-37.4797
-37.4694
-37.4278
-37.3547
-37.2495
-37.1117
-36.9409
-36.7366
-36.4983
-36.2255
-35.918
-35.5754
-35.1973
-34.7835
-34.3334
-33.8466
-33.3226
-32.7608
-32.1605
-31.5209
-30.841
-30.1198
-29.356
-28.5481
-27.6942
-26.7919
-25.8387
-24.8316
-23.7678
-22.6442
-21.4577
-20.2052
-18.8844
-17.4935
-16.0316
-14.5
-12.9017
-11.242
-9.52891
-7.77307
-5.98783
-4.18872
-2.39279
-0.617863
1.1184
2.79917
4.40924
5.93564
7.36799
8.69869
9.92298
11.0387
12.0461
12.9474
13.7465
14.4484
15.0589
15.5847
16.0324
16.4088
16.7206
16.9743
17.176
17.3317
17.4469
17.5268
17.5763
17.5999
17.6015
17.585
17.5537
17.5105
17.4582
17.3992
17.3354
17.2688
17.2007
17.1326
17.0655
17.0002
16.937
16.876
16.8167
16.7577
16.6968
16.6281
16.551
16.4362
-4.52398
-4.57362
-4.58494
-4.58583
-4.58764
-4.59045
-4.59303
-4.59496
-4.59594
-4.59576
-4.59417
-4.59106
-4.58634
-4.58013
-4.57257
-4.56408
-4.55515
-4.5466
-4.53938
-4.53484
-4.53452
-4.54039
-4.55467
-4.58002
-4.6193
-4.67571
-4.75253
-4.85318
-4.98088
-5.13877
-5.32948
-5.55532
-5.81793
-6.11852
-6.45755
-6.83512
-7.25063
-7.70323
-8.1915
-8.71391
-9.26858
-9.85364
-10.467
-11.1066
-11.7702
-12.4559
-13.1612
-13.8841
-14.6224
-15.374
-16.1365
-16.9078
-17.6859
-18.4685
-19.2535
-20.039
-20.8228
-21.6032
-22.3781
-23.1459
-23.9048
-24.6533
-25.3897
-26.1128
-26.8211
-27.5135
-28.1887
-28.8458
-29.4838
-30.1018
-30.6991
-31.2749
-31.8285
-32.3594
-32.8671
-33.3509
-33.8104
-34.2452
-34.6548
-35.0389
-35.3971
-35.7289
-36.0341
-36.3122
-36.563
-36.7862
-36.9813
-37.1481
-37.2861
-37.3951
-37.475
-37.5252
-37.545
-37.5341
-37.4923
-37.419
-37.3138
-37.1762
-37.0056
-36.8016
-36.5636
-36.2914
-35.9845
-35.6428
-35.2657
-34.8531
-34.4043
-33.9193
-33.3971
-32.8375
-32.2397
-31.6029
-30.9261
-30.2086
-29.4488
-28.6454
-27.7961
-26.8989
-25.9509
-24.9495
-23.8916
-22.7744
-21.5948
-20.3499
-19.037
-17.6544
-16.2012
-14.6783
-13.0888
-11.4377
-9.73312
-7.98559
-6.20846
-4.41708
-2.6285
-0.860445
0.869407
2.54431
4.14914
5.67105
7.0998
8.42792
9.65077
10.7663
11.7748
12.6785
13.4811
14.1877
14.8041
15.3366
15.7919
16.1765
16.497
16.7598
16.9709
17.1362
17.2611
17.3507
17.4098
17.4427
17.4534
17.4457
17.4227
17.3874
17.3426
17.2905
17.2332
17.1724
17.1096
17.0462
16.983
16.9207
16.8598
16.8001
16.7409
16.6808
16.6176
16.5457
16.4647
16.3489
-4.49968
-4.56054
-4.5741
-4.57447
-4.57558
-4.57761
-4.57907
-4.57938
-4.57815
-4.5751
-4.56992
-4.56249
-4.55269
-4.54066
-4.52659
-4.51098
-4.49441
-4.47786
-4.46241
-4.44961
-4.44118
-4.43934
-4.4465
-4.46555
-4.49955
-4.55187
-4.62593
-4.7252
-4.85295
-5.01226
-5.20568
-5.43539
-5.70287
-6.00918
-6.35469
-6.73937
-7.16253
-7.62321
-8.11985
-8.6508
-9.21411
-9.8079
-10.43
-11.0783
-11.7504
-12.4444
-13.1578
-13.8885
-14.6341
-15.3925
-16.1615
-16.9388
-17.7223
-18.5098
-19.2993
-20.0887
-20.8759
-21.6591
-22.4365
-23.2062
-23.9667
-24.7163
-25.4534
-26.1769
-26.8853
-27.5774
-28.2521
-28.9086
-29.5458
-30.163
-30.7592
-31.3339
-31.8863
-32.416
-32.9223
-33.4048
-33.8629
-34.2964
-34.7047
-35.0875
-35.4444
-35.775
-36.0791
-36.3562
-36.606
-36.8282
-37.0224
-37.1883
-37.3255
-37.434
-37.5134
-37.5632
-37.5828
-37.5719
-37.5303
-37.4572
-37.3525
-37.2153
-37.0452
-36.8418
-36.6045
-36.3331
-36.0273
-35.6866
-35.3109
-34.8997
-34.4526
-33.9693
-33.4492
-32.8918
-32.2965
-31.6624
-30.9888
-30.2747
-29.5187
-28.7192
-27.8743
-26.9815
-26.0383
-25.042
-23.9897
-22.8784
-21.705
-20.4666
-19.1606
-17.7852
-16.3397
-14.825
-13.244
-11.6019
-9.90646
-8.16842
-6.40099
-4.61952
-2.84094
-1.08285
0.637185
2.30264
3.8986
5.41249
6.83426
8.15673
9.3754
10.4884
11.4959
12.4003
13.2053
13.9157
14.5372
15.076
15.5385
15.9312
16.2604
16.5325
16.7533
16.9286
17.0635
17.1631
17.2321
17.2748
17.295
17.2964
17.2822
17.2552
17.2183
17.1735
17.123
17.0684
17.0113
16.9528
16.8938
16.8351
16.7767
16.7186
16.6601
16.5995
16.5347
16.4608
16.3771
16.2613
-4.4877
-4.56192
-4.57773
-4.57707
-4.57692
-4.57752
-4.57704
-4.57468
-4.56999
-4.56262
-4.55222
-4.53864
-4.5218
-4.50187
-4.47914
-4.4542
-4.42779
-4.40103
-4.37521
-4.35207
-4.33355
-4.32209
-4.32036
-4.33145
-4.35862
-4.40541
-4.47529
-4.57178
-4.69806
-4.8571
-5.05131
-5.28264
-5.55237
-5.86156
-6.21058
-6.59939
-7.02725
-7.49318
-7.99563
-8.53294
-9.10308
-9.70402
-10.3335
-10.9893
-11.6691
-12.3706
-13.0914
-13.8293
-14.5819
-15.347
-16.1223
-16.9057
-17.6948
-18.4875
-19.2818
-20.0756
-20.8669
-21.6537
-22.4343
-23.207
-23.9699
-24.7217
-25.4608
-26.1859
-26.8956
-27.5889
-28.2647
-28.9219
-29.5596
-30.1771
-30.7735
-31.3483
-31.9007
-32.4302
-32.9363
-33.4185
-33.8763
-34.3094
-34.7173
-35.0997
-35.4562
-35.7865
-36.0902
-36.367
-36.6166
-36.8384
-37.0325
-37.1981
-37.3353
-37.4438
-37.5232
-37.5731
-37.593
-37.5825
-37.5414
-37.469
-37.3649
-37.2285
-37.0593
-36.8568
-36.6207
-36.3505
-36.046
-35.7068
-35.3327
-34.9232
-34.4781
-33.9968
-33.4789
-32.9239
-32.331
-31.6996
-31.0289
-30.3178
-29.5649
-28.7687
-27.9271
-27.0378
-26.0984
-25.1062
-24.0583
-22.9517
-21.7833
-20.5504
-19.2503
-17.8813
-16.4427
-14.9356
-13.3628
-11.7297
-10.0441
-8.31682
-6.56094
-4.79183
-3.0262
-1.28149
0.425072
2.07724
3.66053
5.16268
6.57406
7.88772
9.09942
10.2074
11.212
12.1154
12.9214
13.6345
14.2603
14.8049
15.2743
15.675
16.013
16.2944
16.525
16.7103
16.8555
16.9655
17.0447
17.0974
17.1274
17.1382
17.1331
17.1148
17.086
17.0489
17.0055
16.9575
16.9063
16.853
16.7987
16.7437
16.6883
16.6323
16.5748
16.5144
16.4489
16.3737
16.2885
16.1736
-4.49722
-4.58763
-4.60549
-4.60278
-4.60026
-4.59817
-4.59419
-4.58737
-4.57717
-4.56323
-4.54517
-4.52288
-4.49632
-4.46578
-4.43166
-4.39473
-4.35589
-4.31647
-4.27798
-4.24239
-4.21189
-4.18917
-4.17712
-4.17908
-4.19843
-4.23878
-4.30352
-4.39595
-4.51893
-4.6753
-4.86749
-5.09764
-5.36714
-5.67702
-6.02754
-6.41861
-6.84943
-7.319
-7.82569
-8.36784
-8.9433
-9.55002
-10.1856
-10.8477
-11.5339
-12.242
-12.9693
-13.7137
-14.4726
-15.2438
-16.025
-16.814
-17.6085
-18.4064
-19.2054
-20.0037
-20.7992
-21.59
-22.3743
-23.1503
-23.9165
-24.6712
-25.413
-26.1405
-26.8526
-27.548
-28.2256
-28.8846
-29.5239
-30.1428
-30.7406
-31.3165
-31.87
-32.4005
-32.9074
-33.3904
-33.849
-34.2827
-34.6913
-35.0741
-35.4312
-35.762
-36.0662
-36.3434
-36.5934
-36.8158
-37.0102
-37.1765
-37.3142
-37.4232
-37.5032
-37.5537
-37.5742
-37.5646
-37.5243
-37.4529
-37.3498
-37.2145
-37.0464
-36.8452
-36.6103
-36.3417
-36.0387
-35.7012
-35.3288
-34.9213
-34.478
-33.9988
-33.483