/*--------------------------------*- C++ -*----------------------------------*\
| =========                 |                                                 |
| \\      /  F ield         | OpenFOAM: The Open Source CFD Toolbox           |
|  \\    /   O peration     | Version:  2406                                  |
|   \\  /    A nd           | Website:  www.openfoam.com                      |
|    \\/     M anipulation  |                                                 |
\*---------------------------------------------------------------------------*/
FoamFile
{
    version     2.0;
    format      ascii;
    arch        "LSB;label=32;scalar=64";
    class       volScalarField;
    location    "100";
    object      p;
}
// * * * * * * * * * * * * * * * * * * * * * * * * * * * * * * * * * * * * * //

dimensions      [0 2 -2 0 0 0 0];

internalField   nonuniform List<scalar> 
150000
(
243.941
136.801
79.8109
56.522
43.1657
34.3505
28.5797
24.6026
21.6506
19.3386
17.4584
15.8838
14.5342
13.3564
12.3134
11.3788
10.5326
9.75982
9.0486
8.38957
7.77516
7.1992
6.65658
6.14304
5.65498
5.18936
4.74356
4.31535
3.90277
3.50413
3.11795
2.74292
2.37789
2.02181
1.67379
1.333
0.998696
0.67022
0.346968
0.0283912
-0.286008
-0.596689
-0.904068
-1.20853
-1.51044
-1.81013
-2.10789
-2.40403
-2.6988
-2.99248
-3.28528
-3.57745
-3.8692
-4.16074
-4.45226
-4.74397
-5.03604
-5.32866
-5.62201
-5.91627
-6.21161
-6.50819
-6.80621
-7.10582
-7.40721
-7.71055
-8.01603
-8.32384
-8.63416
-8.94719
-9.26315
-9.58224
-9.90471
-10.2308
-10.5607
-10.8948
-11.2333
-11.5765
-11.9248
-12.2785
-12.6381
-13.0039
-13.3765
-13.7565
-14.1443
-14.5406
-14.9464
-15.3622
-15.7893
-16.2285
-16.6813
-17.1492
-17.6342
-18.1393
-18.6705
-19.2425
-19.8847
-20.6219
-21.5177
-23.6405
143.108
103.481
73.8859
57.3033
45.8845
37.4339
31.3908
26.9988
23.6578
21.0203
18.8785
17.0955
15.5793
14.267
13.1141
12.0885
11.1663
10.3292
9.563
8.85662
8.20109
7.58916
7.01486
6.47326
5.96021
5.47222
5.00632
4.55995
4.13091
3.71729
3.31744
2.92988
2.55334
2.18666
1.82884
1.47897
1.13625
0.799927
0.469358
0.143942
-0.176867
-0.493564
-0.806604
-1.1164
-1.42335
-1.7278
-2.03008
-2.33051
-2.62937
-2.92693
-3.22346
-3.51918
-3.81434
-4.10916
-4.40384
-4.69858
-4.9936
-5.28907
-5.58518
-5.88213
-6.18009
-6.47924
-6.77977
-7.08185
-7.38568
-7.69143
-7.99929
-8.30947
-8.62215
-8.93755
-9.25589
-9.57739
-9.90228
-10.2308
-10.5633
-10.8999
-11.2411
-11.5871
-11.9382
-12.295
-12.6577
-13.027
-13.4032
-13.7871
-14.1792
-14.5803
-14.9913
-15.4133
-15.8475
-16.2952
-16.7585
-17.2396
-17.7419
-18.2701
-18.8316
-19.4394
-20.1136
-20.8824
-21.8555
-23.4456
94.5839
83.3512
68.7016
56.557
46.9417
39.3121
33.4326
28.9146
25.3682
22.521
20.1892
18.2426
16.588
15.1591
13.9081
12.7993
11.8061
10.9079
10.089
9.33668
8.64087
7.99342
7.38763
6.81797
6.2798
5.76921
5.2829
4.81804
4.37217
3.94319
3.52927
3.12879
2.74034
2.36268
1.99468
1.63537
1.28385
0.939338
0.601113
0.268528
-0.0590051
-0.382023
-0.701016
-1.01643
-1.32869
-1.63817
-1.94522
-2.25018
-2.55336
-2.85504
-3.15549
-3.45498
-3.75375
-4.05203
-4.35004
-4.648
-4.94612
-5.2446
-5.54363
-5.84342
-6.14414
-6.44599
-6.74916
-7.05384
-7.36021
-7.66847
-7.97883
-8.29147
-8.60661
-8.92446
-9.24525
-9.5692
-9.89658
-10.2276
-10.5626
-10.9019
-11.2457
-11.5945
-11.9485
-12.3082
-12.6741
-13.0466
-13.4263
-13.8139
-14.21
-14.6156
-15.0315
-15.459
-15.8994
-16.3545
-16.8264
-17.3181
-17.8334
-18.3774
-18.9572
-19.5826
-20.2654
-21.0163
-21.8537
-22.8064
73.952
70.3072
62.0834
53.3145
45.7311
39.3578
34.1038
29.8354
26.3579
23.494
21.1063
19.0892
17.3623
15.8648
14.5508
13.3854
12.3417
11.3986
10.5397
9.75178
9.02418
8.34827
7.71691
7.12419
6.56517
6.03567
5.53215
5.05157
4.59131
4.14913
3.72306
3.31136
2.91254
2.52526
2.14833
1.78069
1.42141
1.06965
0.724625
0.385663
0.052136
-0.276526
-0.600842
-0.921288
-1.2383
-1.55229
-1.86362
-2.17265
-2.4797
-2.78508
-3.08906
-3.39193
-3.69393
-3.99531
-4.29631
-4.59714
-4.89803
-5.19918
-5.5008
-5.80309
-6.10625
-6.41047
-6.71594
-7.02287
-7.33145
-7.64188
-7.95435
-8.26909
-8.5863
-8.90619
-9.22901
-9.55499
-9.88438
-10.2174
-10.5545
-10.8958
-11.2417
-11.5925
-11.9486
-12.3105
-12.6786
-13.0533
-13.4354
-13.8254
-14.2241
-14.6323
-15.051
-15.4813
-15.9248
-16.383
-16.8581
-17.3525
-17.8696
-18.4128
-18.9864
-19.594
-20.2364
-20.906
-21.5773
-22.1957
61.3024
59.9729
55.3099
49.3497
43.6528
38.5246
34.023
30.1676
26.9008
24.1311
21.7707
19.7446
17.9902
16.457
15.1044
13.9007
12.8204
11.8431
10.9526
10.1356
9.38155
8.68145
8.02802
7.41515
6.8377
6.29131
5.77229
5.27746
4.80408
4.34977
3.91248
3.4904
3.08192
2.68565
2.30035
1.92489
1.5583
1.19968
0.848223
0.503213
0.163991
-0.17004
-0.499426
-0.824667
-1.14622
-1.46451
-1.77994
-2.09285
-2.4036
-2.7125
-3.01985
-3.32593
-3.63101
-3.93534
-4.23917
-4.54272
-4.84622
-5.14989
-5.45393
-5.75857
-6.06399
-6.3704
-6.678
-6.98699
-7.29757
-7.60995
-7.92433
-8.24092
-8.55993
-8.8816
-9.20616
-9.53384
-9.8649
-10.1996
-10.5383
-10.8811
-11.2286
-11.5809
-11.9386
-12.3019
-12.6714
-13.0476
-13.431
-13.8222
-14.222
-14.6312
-15.0506
-15.4814
-15.9247
-16.382
-16.8549
-17.3452
-17.8546
-18.3848
-18.9362
-19.507
-20.0901
-20.668
-21.2061
-21.6458
52.607
52.1582
49.4893
45.4947
41.2776
37.2192
33.4568
30.0776
27.1014
24.4998
22.229
20.2431
18.4991
16.9587
15.5892
14.3633
13.2586
12.2565
11.3416
10.5013
9.7251
9.00429
8.33155
7.70074
7.10665
6.54484
6.01152
5.50342
5.01772
4.55198
4.10404
3.67203
3.25431
2.8494
2.45601
2.07298
1.69928
1.33399
0.976255
0.625335
0.280541
-0.0587509
-0.39311
-0.723056
-1.04907
-1.37159
-1.69102
-2.00775
-2.32213
-2.63449
-2.94514
-3.25436
-3.56244
-3.86964
-4.17622
-4.4824
-4.78842
-5.0945
-5.40087
-5.70772
-6.01529
-6.32376
-6.63334
-6.94423
-7.25665
-7.57079
-7.88687
-8.2051
-8.52569
-8.84888
-9.17489
-9.50396
-9.83636
-10.1723
-10.5122
-10.8562
-11.2047
-11.558
-11.9165
-12.2806
-12.6507
-13.0273
-13.4109
-13.8022
-14.2016
-14.6099
-15.028
-15.4566
-15.8967
-16.3492
-16.8151
-17.2952
-17.7899
-18.2986
-18.8191
-19.3456
-19.8671
-20.3635
-20.8021
-21.1363
46.4272
46.2989
44.683
41.9499
38.8235
35.6386
32.5454
29.6486
27.0032
24.6203
22.4882
20.5856
18.8874
17.368
16.0036
14.7728
13.657
12.6402
11.7089
10.8513
10.0578
9.32
8.63091
7.98449
7.3756
6.79984
6.25339
5.73298
5.23573
4.75915
4.30105
3.85952
3.43286
3.01956
2.61829
2.22786
1.84719
1.47532
1.1114
0.754638
0.404325
0.0598158
-0.279479
-0.6141
-0.944542
-1.27126
-1.59469
-1.91521
-2.23319
-2.54897
-2.86288
-3.17521
-3.48625
-3.79627
-4.10553
-4.41428
-4.72275
-5.03116
-5.33976
-5.64874
-5.95833
-6.26873
-6.58015
-6.8928
-7.20689
-7.52261
-7.84018
-8.15982
-8.48174
-8.80617
-9.13333
-9.46346
-9.79682
-10.1337
-10.4743
-10.8189
-11.1679
-11.5215
-11.8802
-12.2443
-12.6141
-12.9901
-13.3728
-13.7626
-14.1601
-14.5659
-14.9804
-15.4043
-15.8382
-16.2824
-16.7373
-17.2027
-17.6777
-18.1601
-18.6456
-19.1268
-19.5913
-20.0201
-20.3862
-20.6558
41.7845
41.7553
40.7065
38.7825
36.4445
33.9471
31.4236
28.9738
26.6634
24.523
22.5612
20.7745
19.1521
17.6797
16.3421
15.124
14.0113
12.9911
12.0522
11.1845
10.3792
9.62891
8.92696
8.26771
7.64623
7.05825
6.50007
5.96843
5.46049
4.97376
4.50605
4.05542
3.62015
3.19871
2.78975
2.39205
2.00451
1.62615
1.25608
0.893506
0.537688
0.187965
-0.156271
-0.495576
-0.830461
-1.1614
-1.48883
-1.81315
-2.13474
-2.45395
-2.77111
-3.08654
-3.40053
-3.71334
-4.02526
-4.33653
-4.64739
-4.95808
-5.26883
-5.57985
-5.89137
-6.20359
-6.51672
-6.83097
-7.14655
-7.46367
-7.78254
-8.10336
-8.42635
-8.75173
-9.07973
-9.41058
-9.74452
-10.0818
-10.4227
-10.7674
-11.1163
-11.4697
-11.8278
-12.191
-12.5596
-12.934
-13.3146
-13.7017
-14.0958
-14.4972
-14.9062
-15.3232
-15.7484
-16.1816
-16.6224
-17.07
-17.5223
-17.9762
-18.4264
-18.8648
-19.2796
-19.6543
-19.968
-20.1972
38.1246
38.1207
37.3972
36.0016
34.2275
32.2576
30.2
28.1411
26.1442
24.2474
22.4699
20.819
19.2941
17.8899
16.5982
15.4095
14.3141
13.3025
12.3659
11.496
10.6855
9.92798
9.21746
8.54883
7.91756
7.31963
6.75151
6.2101
5.69264
5.1967
4.72011
4.26096
3.81755
3.38834
2.97196
2.5672
2.17294
1.7882
1.41206
1.04372
0.682419
0.32749
-0.0216903
-0.365693
-0.70504
-1.04022
-1.37167
-1.69981
-2.02503
-2.34769
-2.66813
-2.98666
-3.30359
-3.61919
-3.93375
-4.24751
-4.56073
-4.87364
-5.18648
-5.49946
-5.81281
-6.12674
-6.44146
-6.75717
-7.07409
-7.39243
-7.71237
-8.03415
-8.35796
-8.68402
-9.01254
-9.34376
-9.6779
-10.0152
-10.3559
-10.7002
-11.0484
-11.4008
-11.7576
-12.1192
-12.4857
-12.8575
-13.2349
-13.618
-14.0073
-14.4028
-14.8047
-15.213
-15.6274
-16.0475
-16.4723
-16.9002
-17.3288
-17.7542
-18.1708
-18.5708
-18.9435
-19.2757
-19.5515
-19.7548
35.1423
35.1425
34.6173
33.5743
32.2039
30.6346
28.9499
27.2209
25.5038
23.8365
22.2427
20.7355
19.3209
17.9995
16.7687
15.6236
14.5584
13.5668
12.6423
11.7788
10.9703
10.2115
9.49747
8.82366
8.18606
7.58104
7.00537
6.45614
5.93077
5.42692
4.94254
4.47576
4.02491
3.5885
3.16517
2.75372
2.35304
1.96213
1.5801
1.20612
0.839446
0.479381
0.125303
-0.223366
-0.567159
-0.906567
-1.24204
-1.57401
-1.90287
-2.22898
-2.55269
-2.87432
-3.19418
-3.51256
-3.82973
-4.14596
-4.46149
-4.77657
-5.09143
-5.4063
-5.72139
-6.03692
-6.3531
-6.67014
-6.98824
-7.3076
-7.62843
-7.95093
-8.27531
-8.60176
-8.9305
-9.26174
-9.59568
-9.93256
-10.2726
-10.616
-10.963
-11.3138
-11.6686
-12.0277
-12.3913
-12.7596
-13.1327
-13.5109
-13.8941
-14.2825
-14.6758
-15.0739
-15.4762
-15.8819
-16.2896
-16.6973
-17.1023
-17.5004
-17.8862
-18.2527
-18.5907
-18.8896
-19.1377
-19.3241
32.6532
32.6522
32.255
31.4535
30.3753
29.1102
27.7215
26.2658
24.7906
23.3309
21.9109
20.5462
19.2462
18.0156
16.8555
15.7646
14.7401
13.7783
12.8751
12.026
11.2267
10.473
9.76082
9.0865
8.44657
7.83788
7.25754
6.70295
6.17173
5.66174
5.17102
4.69784
4.24059
3.79785
3.36829
2.95075
2.54414
2.14749
1.75991
1.38057
1.00873
0.643718
0.28489
-0.0683271
-0.416469
-0.76003
-1.09947
-1.43521
-1.76766
-2.09718
-2.42413
-2.74882
-3.07158
-3.39269
-3.71244
-4.03108
-4.34887
-4.66605
-4.98286
-5.29952
-5.61626
-5.93327
-6.25079
-6.56899
-6.8881
-7.20831
-7.52982
-7.85281
-8.17749
-8.50406
-8.8327
-9.16362
-9.497
-9.83305
-10.172
-10.5139
-10.8592
-11.2078
-11.56
-11.916
-12.2759
-12.6399
-13.0079
-13.38
-13.7563
-14.1365
-14.5203
-14.9072
-15.2965
-15.6871
-16.0774
-16.4652
-16.8474
-17.2203
-17.5787
-17.9164
-18.2259
-18.4988
-18.7268
-18.902
30.5375
30.5346
30.2243
29.5932
28.7297
27.6974
26.5432
25.3117
24.0422
22.7654
21.5041
20.2745
19.0876
17.9501
16.8656
15.8354
14.8589
13.9346
13.0601
12.2326
11.4491
10.7064
10.0015
9.33148
8.69345
8.0848
7.50305
6.94592
6.41131
5.89729
5.40208
4.92408
4.46179
4.01388
3.5791
3.15633
2.74453
2.34276
1.95016
1.56592
1.18932
0.819683
0.45639
0.0988668
-0.253417
-0.600954
-0.944202
-1.28359
-1.61951
-1.95233
-2.28242
-2.61009
-2.93566
-3.25942
-3.58165
-3.90262
-4.22257
-4.54176
-4.86041
-5.17876
-5.49701
-5.81538
-6.13407
-6.45329
-6.77323
-7.09409
-7.41606
-7.73932
-8.06405
-8.39045
-8.71869
-9.04895
-9.38142
-9.71625
-10.0536
-10.3937
-10.7366
-11.0826
-11.4316
-11.7839
-12.1394
-12.4983
-12.8605
-13.226
-13.5945
-13.9657
-14.3393
-14.7146
-15.0905
-15.4659
-15.839
-16.2075
-16.5686
-16.9186
-17.2529
-17.5662
-17.8524
-18.1052
-18.3181
-18.4859
28.7134
28.7092
28.4606
27.953
27.2502
26.3974
25.4296
24.3817
23.2855
22.1675
21.048
19.9428
18.8632
17.817
16.8093
15.8428
14.9187
14.037
13.1967
12.3963
11.634
10.9076
10.2149
9.55361
8.92161
8.31673
7.73691
7.18024
6.64491
6.12923
5.63162
5.15064
4.68495
4.2333
3.79455
3.36765
2.95163
2.54559
2.14871
1.76022
1.37943
1.00567
0.638347
0.276901
-0.0791868
-0.430401
-0.777193
-1.11998
-1.45916
-1.79511
-2.12816
-2.45864
-2.78687
-3.11313
-3.43771
-3.76086
-4.08285
-4.4039
-4.72425
-5.04413
-5.36375
-5.68331
-6.00301
-6.32306
-6.64365
-6.96495
-7.28715
-7.61043
-7.93496
-8.26092
-8.58846
-8.91775
-9.24894
-9.58219
-9.91763
-10.2554
-10.5956
-10.9384
-11.2837
-11.6317
-11.9824
-12.3357
-12.6915
-13.0496
-13.4099
-13.7718
-14.1348
-14.498
-14.8606
-15.221
-15.5776
-15.9281
-16.2698
-16.5993
-16.9126
-17.2054
-17.4728
-17.7096
-17.9114
-18.0743
27.1228
27.1179
26.9146
26.499
25.9184
25.2058
24.3871
23.4895
22.5389
21.5573
20.563
19.5703
18.5901
17.6308
16.698
15.7955
14.9256
14.0893
13.2868
12.5175
11.7805
11.0745
10.398
9.74948
9.12721
8.52954
7.95487
7.4016
6.86823
6.35332
5.85553
5.37357
4.90626
4.45248
4.01121
3.58148
3.16238
2.7531
2.35287
1.96095
1.57669
1.19946
0.828699
0.463856
0.104434
-0.250035
-0.599989
-0.945838
-1.28797
-1.62674
-1.96249
-2.29554
-2.6262
-2.95475
-3.28147
-3.60662
-3.93044
-4.25317
-4.57504
-4.89626
-5.21705
-5.53761
-5.85813
-6.1788
-6.49981
-6.82133
-7.14354
-7.46659
-7.79066
-8.11589
-8.44244
-8.77045
-9.10005
-9.43136
-9.76451
-10.0996
-10.4367
-10.7758
-11.1171
-11.4604
-11.8057
-12.153
-12.502
-12.8525
-13.2041
-13.5564
-13.9087
-14.2601
-14.6095
-14.9556
-15.2966
-15.6304
-15.9544
-16.2658
-16.5611
-16.8367
-17.0886
-17.3129
-17.5063
-17.6661
25.7228
25.7178
25.5487
25.2031
24.7171
24.1151
23.4165
22.6425
21.8141
20.9496
20.0647
19.1724
18.2831
17.4047
16.5433
15.7032
14.8872
14.0973
13.3343
12.5985
11.8897
11.2071
10.5501
9.91737
9.30791
8.72047
8.15378
7.60661
7.07773
6.56595
6.07013
5.58919
5.1221
4.66788
4.22562
3.79445
3.37356
2.96219
2.55965
2.16526
1.7784
1.39849
1.025
0.657403
0.295236
-0.0619516
-0.414579
-0.763039
-1.1077
-1.44892
-1.78702
-2.12232
-2.4551
-2.78566
-3.11425
-3.44113
-3.76653
-4.0907
-4.41385
-4.7362
-5.05793
-5.37926
-5.70037
-6.02143
-6.34263
-6.66413
-6.98608
-7.30866
-7.63199
-7.95623
-8.2815
-8.60793
-8.93563
-9.2647
-9.59522
-9.92727
-10.2609
-10.5961
-10.9329
-11.2711
-11.6108
-11.9517
-12.2937
-12.6363
-12.9793
-13.3219
-13.6636
-14.0033
-14.3401
-14.6726
-14.999
-15.3175
-15.6258
-15.9213
-16.2011
-16.4622
-16.7014
-16.9159
-17.1029
-17.2608
24.4811
24.4761
24.3337
24.0424
23.6308
23.1171
22.516
21.8442
21.1184
20.3541
19.5646
18.7615
17.9541
17.1501
16.3556
15.5749
14.8115
14.0675
13.3446
12.6434
11.9643
11.3072
10.6717
10.0572
9.46294
8.88812
8.33181
7.79304
7.27087
6.76434
6.27251
5.79448
5.32938
4.87636
4.43464
4.00345
3.58208
3.16985
2.76611
2.37027
1.98176
1.60005
1.22462
0.855019
0.490786
0.131506
-0.223216
-0.573754
-0.92046
-1.26367
-1.60369
-1.94083
-2.27537
-2.60757
-2.9377
-3.266
-3.59269
-3.91801
-4.24216
-4.56534
-4.88776
-5.20959
-5.53102
-5.85222
-6.17335
-6.49456
-6.81601
-7.13784
-7.46018
-7.78315
-8.10687
-8.43144
-8.75695
-9.08348
-9.41109
-9.73981
-10.0697
-10.4006
-10.7327
-11.0657
-11.3994
-11.7339
-12.0686
-12.4033
-12.7375
-13.0706
-13.4019
-13.7305
-14.0553
-14.3749
-14.688
-14.9926
-15.2868
-15.5684
-15.8349
-16.0838
-16.3126
-16.5192
-16.7014
-16.8581
23.3727
23.3679
23.2464
22.9981
22.6457
22.2033
21.6821
21.0951
20.456
19.7775
19.071
18.3466
17.6127
16.8766
16.1439
15.4191
14.7058
14.0065
13.323
12.6566
12.0079
11.3773
10.7647
10.17
9.59273
9.03237
8.48829
7.95981
7.4462
6.94672
6.46064
5.98721
5.5257
5.07542
4.63569
4.20584
3.78527
3.37336
2.96956
2.57332
2.18414
1.80153
1.42502
1.05419
0.688629
0.327941
-0.028239
-0.38026
-0.728453
-1.07313
-1.41459
-1.75312
-2.08898
-2.42243
-2.75371
-3.08305
-3.41069
-3.73682
-4.06164
-4.38537
-4.70816
-5.03021
-5.35168
-5.67273
-5.99351
-6.31417
-6.63484
-6.95565
-7.27672
-7.59815
-7.92005
-8.24249
-8.56556
-8.88929
-9.21372
-9.53888
-9.86473
-10.1912
-10.5183
-10.8458
-11.1736
-11.5014
-11.8289
-12.1557
-12.4813
-12.8051
-13.1264
-13.4443
-13.7578
-14.0656
-14.3664
-14.6585
-14.9402
-15.2096
-15.4646
-15.7032
-15.9235
-16.1236
-16.3022
-16.4582
22.3778
22.3733
22.2687
22.0547
21.7501
21.3659
20.9106
20.3945
19.8287
19.2239
18.5896
17.9346
17.2665
16.5918
15.9158
15.2431
14.577
13.9203
13.2752
12.6429
12.0245
11.4208
10.8318
10.2578
9.69867
9.15403
8.62356
8.10679
7.6032
7.11226
6.63337
6.16596
5.70945
5.26325
4.8268
4.39955
3.98096
3.57051
3.16771
2.77209
2.38319
2.00058
1.62384
1.25259
0.886448
0.52506
0.168088
-0.184791
-0.533881
-0.879475
-1.22185
-1.56127
-1.89798
-2.23223
-2.56425
-2.89424
-3.22243
-3.54901
-3.87417
-4.19809
-4.52094
-4.84289
-5.16409
-5.48469
-5.80484
-6.12466
-6.44427
-6.76379
-7.08333
-7.40296
-7.72278
-8.04285
-8.36322
-8.68391
-9.00495
-9.32633
-9.64799
-9.96988
-10.2919
-10.6138
-10.9355
-11.2566
-11.5769
-11.8959
-12.2131
-12.528
-12.8398
-13.1476
-13.4505
-13.7474
-14.0369
-14.3178
-14.5884
-14.8471
-15.0923
-15.3222
-15.5353
-15.7302
-15.9058
-16.0615
21.4806
21.4765
21.3855
21.1994
20.9339
20.5976
20.1971
19.7406
19.2372
18.6957
18.1243
17.5304
16.9209
16.3016
15.6775
15.0528
14.4309
13.8146
13.2061
12.6069
12.0183
11.4412
10.8761
10.3232
9.78275
9.25463
8.73868
8.23463
7.74216
7.26086
6.79032
6.3301
5.87973
5.43876
5.00671
4.58313
4.16757
3.7596
3.35878
2.96471
2.57699
2.19523
1.81908
1.44818
1.08219
0.720802
0.363699
0.0105921
-0.3388
-0.684744
-1.02749
-1.3673
-1.70438
-2.03897
-2.37128
-2.70151
-3.02985
-3.3565
-3.68162
-4.00538
-4.32794
-4.64947
-4.97009
-5.28994
-5.60915
-5.92784
-6.24612
-6.56409
-6.88182
-7.19941
-7.51691
-7.83437
-8.15182
-8.46928
-8.78673
-9.10415
-9.42148
-9.73861
-10.0554
-10.3717
-10.6873
-11.0018
-11.315
-11.6264
-11.9356
-12.2418
-12.5445
-12.8429
-13.136
-13.4228
-13.7022
-13.9729
-14.2336
-14.483
-14.7196
-14.9421
-15.1491
-15.3397
-15.5131
-15.6686
20.6684
20.6646
20.5847
20.4217
20.1883
19.8918
19.5372
19.1311
18.681
18.1942
17.6776
17.1376
16.5803
16.0109
15.434
14.8535
14.2726
13.6942
13.1204
12.5529
11.9932
11.4421
10.9005
10.3688
9.84725
9.33605
8.83518
8.34452
7.8639
7.39307
6.93174
6.47959
6.03628
5.60144
5.17471
4.75572
4.3441
3.93948
3.5415
3.14981
2.76407
2.38395
2.00912
1.63929
1.27415
0.913417
0.556817
0.204085
-0.14503
-0.490771
-0.83337
-1.17305
-1.51002
-1.84449
-2.17665
-2.50669
-2.83479
-3.16111
-3.48582
-3.80907
-4.13101
-4.45177
-4.77149
-5.09029
-5.40827
-5.72556
-6.04223
-6.35837
-6.67406
-6.98936
-7.30432
-7.61896
-7.9333
-8.24734
-8.56105
-8.87438
-9.18725
-9.49955
-9.81113
-10.1218
-10.4313
-10.7394
-11.0456
-11.3497
-11.651
-11.9491
-12.2432
-12.5327
-12.8167
-13.0943
-13.3644
-13.6261
-13.878
-14.1192
-14.3483
-14.5644
-14.7663
-14.9532
-15.1246
-15.2801
19.9305
19.927
19.8565
19.7125
19.506
19.2428
18.9269
18.5637
18.1593
17.7198
17.251
16.7587
16.2478
15.7233
15.1891
14.6491
14.1062
13.5631
13.022
12.4847
11.9525
11.4267
10.9081
10.3972
9.89457
9.4004
8.91484
8.43794
7.96963
7.50981
7.0583
6.61488
6.17931
5.75133
5.33065
4.91698
4.51002
4.10948
3.71506
3.32646
2.9434
2.56559
2.19277
1.82465
1.46098
1.1015
0.745988
0.394194
0.0458966
-0.299122
-0.641069
-0.980146
-1.31655
-1.65045
-1.98204
-2.31148
-2.63893
-2.96455
-3.28849
-3.61088
-3.93185
-4.25154
-4.57005
-4.88749
-5.20397
-5.51957
-5.83437
-6.14845
-6.46186
-6.77466
-7.08686
-7.39849
-7.70955
-8.02002
-8.32986
-8.639
-8.94734
-9.25477
-9.56111
-9.86617
-10.1697
-10.4714
-10.7709
-11.0679
-11.3618
-11.6521
-11.9382
-12.2194
-12.495
-12.7641
-13.0258
-13.2793
-13.5234
-13.7572
-13.9798
-14.1903
-14.3877
-14.5716
-14.7413
-14.8967
19.2584
19.2552
19.1925
19.0643
18.8804
18.6453
18.3624
18.0358
17.6708
17.2723
16.8455
16.3951
15.9257
15.4414
14.9461
14.443
13.935
13.4248
12.9143
12.4055
11.8997
11.3981
10.9017
10.4112
9.92708
9.44979
8.97956
8.51654
8.06079
7.6123
7.17099
6.73675
6.30941
5.8888
5.47471
5.06693
4.66522
4.26935
3.87908
3.49417
3.11437
2.73946
2.36919
2.00334
1.64169
1.28401
0.930099
0.579747
0.232756
-0.111065
-0.451902
-0.789932
-1.12533
-1.45826
-1.78887
-2.11733
-2.44377
-2.76833
-3.09115
-3.41234
-3.73204
-4.05034
-4.36735
-4.68316
-4.99786
-5.31152
-5.62422
-5.93601
-6.24693
-6.55701
-6.86629
-7.17475
-7.48238
-7.78916
-8.09502
-8.39989
-8.70367
-9.00621
-9.30735
-9.60687
-9.90453
-10.2
-10.4931
-10.7832
-11.07
-11.3529
-11.6315
-11.905
-12.1728
-12.4341
-12.6882
-12.9342
-13.1713
-13.3987
-13.6155
-13.821
-14.0146
-14.1956
-14.3639
-14.5192
18.6446
18.6417
18.5856
18.4709
18.306
18.0949
17.84
17.5449
17.2139
16.8513
16.4613
16.048
15.6155
15.1674
14.7072
14.2378
13.762
13.2822
12.8004
12.3183
11.8374
11.3589
10.8839
10.413
9.94701
9.48629
9.03122
8.58204
8.13889
7.70187
7.27097
6.84617
6.42738
6.01451
5.60741
5.20594
4.80992
4.41917
4.03352
3.65276
3.2767
2.90516
2.53792
2.17482
1.81564
1.46021
1.10835
0.759883
0.414629
0.0724238
-0.266894
-0.603481
-0.937488
-1.26906
-1.59834
-1.92546
-2.25055
-2.57373
-2.89511
-3.21481
-3.53293
-3.84957
-4.16481
-4.47873
-4.79141
-5.1029
-5.41328
-5.72257
-6.03081
-6.33802
-6.6442
-6.94936
-7.25345
-7.55644
-7.85825
-8.15881
-8.458
-8.75567
-9.05166
-9.34574
-9.63767
-9.92717
-10.2139
-10.4975
-10.7776
-11.0536
-11.325
-11.5914
-11.8519
-12.1061
-12.3532
-12.5925
-12.8233
-13.0448
-13.2564
-13.4576
-13.6476
-13.8262
-13.9931
-14.1481
18.0831
18.0804
18.0299
17.9267
17.778
17.5873
17.3566
17.0887
16.7873
16.456
16.0983
15.718
15.3184
14.9028
14.4744
14.0357
13.5894
13.1377
12.6825
12.2254
11.7681
11.3115
10.8569
10.4049
9.95642
9.51183
9.07161
8.63608
8.20545
7.77988
7.35946
6.94423
6.53418
6.12927
5.72942
5.33455
4.94453
4.55925
4.17856
3.80232
3.43038
3.06258
2.69876
2.33878
1.98247
1.62967
1.28024
0.934022
0.590871
0.250643
-0.0868015
-0.421599
-0.75388
-1.08377
-1.41139
-1.73687
-2.0603
-2.3818
-2.70147
-3.01941
-3.33569
-3.65041
-3.96364
-4.27544
-4.58588
-4.89501
-5.20287
-5.50948
-5.81488
-6.11907
-6.42204
-6.72377
-7.02423
-7.32336
-7.62109
-7.91732
-8.21193
-8.50477
-8.79568
-9.08443
-9.37079
-9.65448
-9.93518
-10.2125
-10.4862
-10.7556
-11.0204
-11.2801
-11.534
-11.7816
-12.0223
-12.2554
-12.4804
-12.6967
-12.9037
-13.1008
-13.2877
-13.464
-13.6296
-13.7843
17.5687
17.5662
17.5205
17.427
17.2923
17.1192
16.9093
16.665
16.3894
16.0855
15.7564
15.4052
15.035
14.6487
14.249
13.8383
13.4191
12.9933
12.5627
12.1291
11.6938
11.258
10.8227
10.3889
9.95718
9.5282
9.10243
8.68024
8.26192
7.84769
7.43771
7.03206
6.63082
6.23398
5.84154
5.45345
5.06965
4.69006
4.3146
3.94314
3.57559
3.21183
2.85173
2.49517
2.14203
1.79217
1.44548
1.10182
0.761081
0.423132
0.087858
-0.244856
-0.575123
-0.90305
-1.22874
-1.5523
-1.87382
-2.19339
-2.5111
-2.82703
-3.14125
-3.45383
-3.76484
-4.07433
-4.38235
-4.68893
-4.99411
-5.29791
-5.60033
-5.90137
-6.20103
-6.49925
-6.79601
-7.09124
-7.38486
-7.67676
-7.96683
-8.25491
-8.54083
-8.82438
-9.10533
-9.38341
-9.65832
-9.92973
-10.1973
-10.4605
-10.7191
-10.9725
-11.2202
-11.4617
-11.6965
-11.924
-12.1438
-12.3552
-12.5579
-12.7514
-12.9354
-13.1096
-13.2738
-13.4281
17.0968
17.0945
17.0529
16.9678
16.8452
16.6872
16.4954
16.2717
16.0186
15.7389
15.435
15.1098
14.7659
14.4059
14.0322
13.647
13.2525
12.8505
12.4429
12.0311
11.6164
11.2001
10.7832
10.3666
9.95098
9.53701
9.12521
8.71599
8.3097
7.90661
7.50692
7.11078
6.71831
6.32957
5.9446
5.56339
5.18593
4.81219
4.44212
4.07564
3.71269
3.35317
2.99702
2.64412
2.29438
1.9477
1.60399
1.26314
0.925055
0.589631
0.256772
-0.0736177
-0.401631
-0.727359
-1.05089
-1.37231
-1.69169
-2.00912
-2.32466
-2.63838
-2.95035
-3.26062
-3.56923
-3.87624
-4.18168
-4.48557
-4.78794
-5.0888
-5.38813
-5.68594
-5.9822
-6.27687
-6.56989
-6.8612
-7.1507
-7.43831
-7.72388
-8.00728
-8.28833
-8.56682
-8.84253
-9.1152
-9.38456
-9.6503
-9.91206
-10.1695
-10.4222
-10.6697
-10.9116
-11.1475
-11.3768
-11.5992
-11.8141
-12.0211
-12.2199
-12.4101
-12.5913
-12.7635
-12.9264
-13.08
16.6636
16.6615
16.6235
16.5457
16.4334
16.2887
16.1126
15.9069
15.6737
15.4151
15.1337
14.8316
14.5113
14.1749
13.8247
13.4627
13.0908
12.7108
12.3243
11.9327
11.5374
11.1394
10.7399
10.3396
9.93931
9.53972
9.14135
8.74467
8.35006
7.95783
7.56823
7.18146
6.79767
6.41698
6.03945
5.66515
5.29409
4.92627
4.56169
4.2003
3.84208
3.48697
3.13491
2.78584
2.43969
2.09638
1.75583
1.41798
1.08274
0.75004
0.419792
0.0919218
-0.233645
-0.556983
-0.878162
-1.19725
-1.51432
-1.82943
-2.14263
-2.45399
-2.76354
-3.07134
-3.37742
-3.68181
-3.98455
-4.28564
-4.58509
-4.88291
-5.17909
-5.4736
-5.76641
-6.05748
-6.34674
-6.63413
-6.91956
-7.20291
-7.48406
-7.76287
-8.03916
-8.31273
-8.58338
-8.85086
-9.11491
-9.37522
-9.6315
-9.8834
-10.1306
-10.3726
-10.6091
-10.8397
-11.064
-11.2816
-11.492
-11.695
-11.8901
-12.0771
-12.2558
-12.4259
-12.5875
-12.7404
16.2659
16.2639
16.2289
16.1575
16.0543
15.9211
15.7588
15.5689
15.3531
15.1134
14.8518
14.5704
14.2711
13.956
13.6271
13.2862
12.935
12.5752
12.2082
11.8354
11.4581
11.0773
10.694
10.3092
9.92349
9.53761
9.15211
8.7675
8.38417
8.00248
7.62271
7.2451
6.86984
6.49709
6.12694
5.75951
5.39483
5.03296
4.67391
4.31768
3.96427
3.61365
3.2658
2.92067
2.57822
2.23841
1.90118
1.56647
1.23422
0.904386
0.576898
0.2517
-0.0712692
-0.392066
-0.710746
-1.02736
-1.34197
-1.65462
-1.96535
-2.2742
-2.58122
-2.88643
-3.18986
-3.49154
-3.79147
-4.08967
-4.38613
-4.68085
-4.97381
-5.26498
-5.55432
-5.84178
-6.12729
-6.41079
-6.69217
-6.97133
-7.24814
-7.52246
-7.79412
-8.06294
-8.3287
-8.59119
-8.85014
-9.1053
-9.35637
-9.60304
-9.84499
-10.0819
-10.3133
-10.539
-10.7586
-10.9717
-11.1779
-11.3771
-11.5688
-11.7528
-11.929
-12.0972
-12.2574
-12.4094
15.9006
15.8988
15.8665
15.8006
15.7053
15.5822
15.432
15.256
15.0556
14.8326
14.5887
14.3257
14.0454
13.7495
13.4399
13.1181
12.7858
12.4445
12.0955
11.7402
11.3796
11.0148
10.6469
10.2766
9.90468
9.53183
9.15863
8.78557
8.4131
8.04158
7.67134
7.30265
6.93572
6.57074
6.20786
5.84721
5.48886
5.1329
4.77938
4.42832
4.07975
3.73367
3.39008
3.04897
2.71031
2.37408
2.04025
1.70878
1.37964
1.05278
0.728168
0.405754
0.0854974
-0.232643
-0.54871
-0.862744
-1.17478
-1.48486
-1.79301
-2.09926
-2.40365
-2.70618
-3.00688
-3.30576
-3.60282
-3.89807
-4.19149
-4.48306
-4.77277
-5.06058
-5.34644
-5.6303
-5.91208
-6.19172
-6.46912
-6.74416
-7.01673
-7.28668
-7.55385
-7.81806
-8.07911
-8.3368
-8.59089
-8.84112
-9.08724
-9.32897
-9.56599
-9.79802
-10.0247
-10.2458
-10.461
-10.6699
-10.8722
-11.0677
-11.2562
-11.4375
-11.6113
-11.7775
-11.9362
-12.0873
15.5654
15.5636
15.5338
15.4727
15.3844
15.2701
15.1306
14.9668
14.78
14.5718
14.3437
14.0972
13.8339
13.5554
13.2632
12.9589
12.6439
12.3195
11.9871
11.6478
11.3028
10.953
10.5994
10.2428
9.88391
9.52341
9.1619
8.79987
8.4378
8.07607
7.71502
7.35496
6.99612
6.63873
6.28296
5.92896
5.57685
5.22673
4.87869
4.53277
4.18903
3.8475
3.50819
3.17113
2.8363
2.50371
2.17334
1.84518
1.51921
1.19541
0.873744
0.554195
0.236733
-0.0786688
-0.392039
-0.703404
-1.01279
-1.32022
-1.62571
-1.92929
-2.23097
-2.53076
-2.82867
-3.1247
-3.41885
-3.7111
-4.00145
-4.28986
-4.57631
-4.86076
-5.14315
-5.42343
-5.70153
-5.97736
-6.25084
-6.52186
-6.79028
-7.05597
-7.31879
-7.57854
-7.83507
-8.08815
-8.33758
-8.58312
-8.82454
-9.06156
-9.29394
-9.52138
-9.74361
-9.96036
-10.1713
-10.3763
-10.575
-10.7671
-10.9525
-11.131
-11.3025
-11.4669
-11.6241
-11.7741
15.2579
15.2563
15.2285
15.1717
15.0894
14.983
14.8529
14.6999
14.5253
14.3303
14.1162
13.8845
13.6365
13.3736
13.0972
12.8088
12.5095
12.2007
11.8836
11.5592
11.2286
10.8927
10.5525
10.2087
9.86208
9.51325
9.16281
8.81128
8.45913
8.10678
7.75457
7.40282
7.05181
6.70178
6.35292
6.00542
5.65942
5.31505
4.9724
4.63157
4.29262
3.9556
3.62057
3.28755
2.95657
2.62763
2.30076
1.97594
1.65318
1.33248
1.01381
0.697182
0.38257
0.0699632
-0.240653
-0.549294
-0.855971
-1.1607
-1.46349
-1.76434
-2.06327
-2.36028
-2.65535
-2.9485
-3.2397
-3.52895
-3.81621
-4.10145
-4.38465
-4.66575
-4.9447
-5.22145
-5.49591
-5.76801
-6.03765
-6.30473
-6.56911
-6.83067
-7.08927
-7.34473
-7.59689
-7.84555
-8.09053
-8.33159
-8.56852
-8.80109
-9.02905
-9.25215
-9.47015
-9.6828
-9.88985
-10.0911
-10.2862
-10.4752
-10.6577
-10.8336
-11.0028
-11.1652
-11.3209
-11.4697
14.9763
14.9747
14.9488
14.8957
14.8189
14.7194
14.5976
14.4542
14.2904
14.1071
13.9056
13.6871
13.4529
13.2041
12.9421
12.668
12.3831
12.0886
11.7855
11.4748
11.1575
10.8346
10.5069
10.1751
9.83997
9.50213
9.16216
8.82058
8.47788
8.13446
7.79071
7.44695
7.10348
6.76056
6.41841
6.07722
5.73717
5.3984
5.06105
4.72521
4.39098
4.05843
3.72763
3.39863
3.07147
2.74619
2.42281
2.10134
1.78181
1.46423
1.14859
0.834905
0.523174
0.213396
-0.094433
-0.400314
-0.704249
-1.00624
-1.30629
-1.60439
-1.90054
-2.19474
-2.48697
-2.77722
-3.06547
-3.3517
-3.63588
-3.91797
-4.19793
-4.47572
-4.75127
-5.02453
-5.29542
-5.56386
-5.82975
-6.09298
-6.35344
-6.61099
-6.86551
-7.11683
-7.36479
-7.60921
-7.84991
-8.0867
-8.31936
-8.54768
-8.77145
-8.99044
-9.20442
-9.41319
-9.61652
-9.8142
-10.006
-10.1919
-10.3716
-10.5449
-10.7119
-10.8724
-11.0265
-11.1741
14.7187
14.7173
14.693
14.6433
14.5712
14.4778
14.3634
14.2286
14.0743
13.9015
13.7113
13.5047
13.2828
13.0468
12.7977
12.5368
12.265
11.9835
11.6932
11.3952
11.0903
10.7793
10.4632
10.1426
9.81827
9.49074
9.16064
8.82847
8.49472
8.15981
7.82412
7.48801
7.15177
6.81568
6.47999
6.14491
5.81064
5.47733
5.14513
4.81417
4.48457
4.15641
3.82978
3.50475
3.18138
2.85971
2.5398
2.22168
1.90537
1.59091
1.2783
0.967571
0.658732
0.351795
0.0467699
-0.256335
-0.557512
-0.856751
-1.15404
-1.44938
-1.74274
-2.03412
-2.3235
-2.61086
-2.89616
-3.17939
-3.4605
-3.73946
-4.01623
-4.29074
-4.56295
-4.83279
-5.10017
-5.36502
-5.62724
-5.88674
-6.14338
-6.39705
-6.64763
-6.89495
-7.13887
-7.37922
-7.61583
-7.84853
-8.07711
-8.30139
-8.52116
-8.73624
-8.94641
-9.15148
-9.35127
-9.54558
-9.73425
-9.91712
-10.0941
-10.265
-10.4298
-10.5884
-10.7408
-10.887
14.4839
14.4825
14.4596
14.4128
14.345
14.257
14.1491
14.0219
13.8762
13.7128
13.5327
13.3368
13.126
12.9015
12.6642
12.4151
12.1553
11.8856
11.6072
11.3207
11.0272
10.7274
10.422
10.1119
9.79757
9.47971
9.15887
8.83557
8.51028
8.18342
7.8554
7.52657
7.19724
6.8677
6.53822
6.20902
5.88032
5.55229
5.2251
4.8989
4.5738
4.24994
3.92739
3.60626
3.28662
2.96853
2.65205
2.33724
2.02413
1.71276
1.40317
1.09539
0.78944
0.485341
0.183118
-0.117212
-0.415629
-0.712115
-1.00665
-1.29922
-1.5898
-1.87838
-2.16491
-2.44938
-2.73176
-3.012
-3.29008
-3.56595
-3.83956
-4.11085
-4.37977
-4.64625
-4.9102
-5.17155
-5.4302
-5.68605
-5.93899
-6.18891
-6.43567
-6.67914
-6.91917
-7.15561
-7.38831
-7.61708
-7.84177
-8.06218
-8.27815
-8.4895
-8.69603
-8.89758
-9.09398
-9.28507
-9.47069
-9.65072
-9.82504
-9.99355
-10.1562
-10.3129
-10.4636
-10.6084
14.2702
14.269
14.2473
14.2032
14.1391
14.0559
13.9539
13.8335
13.6954
13.5404
13.3693
13.1829
12.9822
12.768
12.5413
12.303
12.054
11.7953
11.5276
11.2518
10.9688
10.6792
10.3838
10.0833
9.7784
9.46956
9.1574
8.84242