/*--------------------------------*- C++ -*----------------------------------*\
| =========                 |                                                 |
| \\      /  F ield         | OpenFOAM: The Open Source CFD Toolbox           |
|  \\    /   O peration     | Version:  2406                                  |
|   \\  /    A nd           | Website:  www.openfoam.com                      |
|    \\/     M anipulation  |                                                 |
\*---------------------------------------------------------------------------*/
FoamFile
{
    version     2.0;
    format      ascii;
    arch        "LSB;label=32;scalar=64";
    class       surfaceScalarField;
    location    "100";
    object      phi;
}
// * * * * * * * * * * * * * * * * * * * * * * * * * * * * * * * * * * * * * //

dimensions      [0 3 -1 0 0 0 0];

oriented        oriented;

internalField   nonuniform List<scalar> 
299000
(
0.0796646
0.0203354
0.05868
0.0209846
0.0442563
0.0144236
0.0348045
0.00945181
0.0285036
0.00630089
0.0241944
0.00430913
0.0211439
0.00305048
0.0188957
0.00224823
0.0171731
0.00172261
0.0158083
0.00136479
0.0146969
0.00111139
0.0137715
0.000925328
0.0129872
0.00078433
0.0123126
0.000674552
0.0117255
0.000587117
0.0112093
0.000516142
0.0107517
0.000457597
0.010343
0.000408645
0.00997577
0.000367229
0.00964392
0.000331831
0.0093426
0.000301302
0.00906782
0.000274762
0.00881628
0.000251523
0.00858522
0.000231042
0.00837231
0.000212885
0.00817559
0.000196703
0.00799336
0.000182209
0.00782418
0.000169168
0.00766678
0.000157385
0.00752006
0.000146697
0.00738308
0.000136966
0.00725498
0.000128077
0.00713504
0.000119931
0.00702258
0.000112442
0.00691702
0.000105539
0.00681785
9.91568e-05
0.00672459
9.32424e-05
0.00663683
8.7747e-05
0.00655418
8.26292e-05
0.00647631
7.78516e-05
0.00640291
7.3382e-05
0.0063337
6.91912e-05
0.00626843
6.52537e-05
0.00620687
6.15463e-05
0.00614881
5.80486e-05
0.00609405
5.47418e-05
0.00604242
5.16097e-05
0.00599377
4.86365e-05
0.00594794
4.58092e-05
0.00590481
4.31145e-05
0.00586425
4.05417e-05
0.00582615
3.80797e-05
0.00579042
3.57193e-05
0.00575695
3.34509e-05
0.00572566
3.1267e-05
0.00569649
2.9159e-05
0.00566935
2.71203e-05
0.00564419
2.51434e-05
0.00562095
2.32224e-05
0.00559958
2.13505e-05
0.00558003
1.95224e-05
0.00556228
1.77315e-05
0.00554629
1.5973e-05
0.00553203
1.42407e-05
0.00551948
1.25297e-05
0.00550862
1.08339e-05
0.00549945
9.14851e-06
0.00549196
7.46698e-06
0.00548616
5.78437e-06
0.00548204
4.09366e-06
0.00547963
2.38936e-06
0.00547894
6.63642e-07
0.00548001
-1.08999e-06
0.00548286
-2.8808e-06
0.00548755
-4.71694e-06
0.00549414
-6.60983e-06
0.00550268
-8.57014e-06
0.00551327
-1.06126e-05
0.00552599
-1.27517e-05
0.00554097
-1.50073e-05
0.00555834
-1.74003e-05
0.00557826
-1.99587e-05
0.00560094
-2.27141e-05
0.00562661
-2.57089e-05
0.00565557
-2.89937e-05
0.00568816
-3.2638e-05
0.00572485
-3.67318e-05
0.00576622
-4.14048e-05
0.00581302
-4.68447e-05
0.00586633
-5.33485e-05
0.0059277
-6.14095e-05
0.00599958
-7.19096e-05
0.00608605
-8.65059e-05
0.00619446
-0.00010847
0.00633895
-0.000144543
0.00654791
-0.000209009
0.00687941
-0.000331534
0.00745404
-0.000574605
0.00857453
-0.00112054
-0.00264449
0.0112188
0.105208
0.0151272
0.100189
0.0260033
0.0901959
0.0244172
0.0797557
0.019892
0.0705759
0.0154807
0.062997
0.011888
0.0568576
0.00918979
0.0518805
0.00722528
0.0478075
0.0057956
0.0444309
0.00474133
0.041593
0.00394929
0.0391763
0.00334197
0.0370937
0.00286683
0.0352801
0.00248811
0.033686
0.00218114
0.0322736
0.00192858
0.031013
0.00171806
0.0298811
0.00154052
0.028859
0.00138927
0.0279316
0.00125922
0.0270864
0.0011465
0.026313
0.00104807
0.0256029
0.000961545
0.0249489
0.000885029
0.0243447
0.000816987
0.0237852
0.000756175
0.0232658
0.000701569
0.0227826
0.000652323
0.0223322
0.000607734
0.0219117
0.000567209
0.0215184
0.000530249
0.02115
0.000496429
0.0208045
0.000465387
0.02048
0.000436812
0.0201751
0.000410434
0.0198882
0.000386021
0.019618
0.000363369
0.0193634
0.0003423
0.0191234
0.000322659
0.0188969
0.000304307
0.0186831
0.000287123
0.0184812
0.000270999
0.0182906
0.000255839
0.0181105
0.000241555
0.0179405
0.000228071
0.0177799
0.000215317
0.0176282
0.00020323
0.017485
0.000191753
0.01735
0.000180834
0.0172226
0.000170426
0.0171026
0.000160485
0.0169897
0.000150972
0.0168835
0.00014185
0.0167838
0.000133085
0.0166904
0.000124645
0.016603
0.000116502
0.0165215
0.000108626
0.0164456
0.000100994
0.0163751
9.35783e-05
0.0163101
8.63574e-05
0.0162503
7.93078e-05
0.0161955
7.24083e-05
0.0161458
6.56372e-05
0.016101
5.89742e-05
0.0160611
5.23981e-05
0.016026
4.5889e-05
0.0159957
3.94255e-05
0.0159701
3.29872e-05
0.0159492
2.65516e-05
0.0159332
2.00967e-05
0.0159219
1.3598e-05
0.0159155
7.03073e-06
0.015914
3.66771e-07
0.0159174
-6.42325e-06
0.015926
-1.33736e-05
0.0159399
-2.05213e-05
0.0159591
-2.79099e-05
0.015984
-3.55877e-05
0.0160148
-4.36126e-05
0.0160518
-5.20509e-05
0.0160953
-6.09836e-05
0.0161458
-7.05065e-05
0.0162037
-8.07395e-05
0.0162697
-9.18298e-05
0.0163446
-0.000103968
0.0164292
-0.000117399
0.0165248
-0.000132456
0.0166329
-0.000149596
0.0167555
-0.000169483
0.0168951
-0.000193116
0.0170557
-0.000222078
0.0172427
-0.000258983
0.0174644
-0.000308336
0.0177339
-0.000378162
0.0180724
-0.000483128
0.0185135
-0.000650264
0.0191107
-0.000928738
0.0199452
-0.00140908
0.0210929
-0.00226839
-0.00377793
0.022226
0.105143
0.00998447
0.108942
0.0222043
0.107711
0.0256479
0.10303
0.0245728
0.0967957
0.021715
0.0902434
0.0184402
0.0840224
0.0154108
0.0783946
0.012853
0.0734153
0.0107748
0.0690471
0.00910949
0.0652194
0.00777697
0.0618562
0.00670506
0.0588879
0.00583516
0.056254
0.00512189
0.0539043
0.00453082
0.0517969
0.00403594
0.0498974
0.00361755
0.0481772
0.00326062
0.0466129
0.00295357
0.0451847
0.00268742
0.043876
0.0024551
0.042673
0.00225102
0.0415638
0.00207068
0.0405384
0.00191045
0.0395879
0.00176739
0.038705
0.00163905
0.0378831
0.00152343
0.0371165
0.00141885
0.0364003
0.00132391
0.0357301
0.0012374
0.0351019
0.00115833
0.0345125
0.00108582
0.0339587
0.00101915
0.0334378
0.000957666
0.0329474
0.000900818
0.0324852
0.000848125
0.0320494
0.000799166
0.0316381
0.000753571
0.0312497
0.000711014
0.0308827
0.000671208
0.0305359
0.000633897
0.030208
0.000598854
0.029898
0.000565877
0.0296047
0.000534782
0.0293273
0.000505406
0.029065
0.000477602
0.0288169
0.000451236
0.0285825
0.000426187
0.0283609
0.000402345
0.0281517
0.000379609
0.0279542
0.000357886
0.0277681
0.000337092
0.0275927
0.000317148
0.0274278
0.000297981
0.0272729
0.000279525
0.0271276
0.000261715
0.0269917
0.000244494
0.0268648
0.000227804
0.0267468
0.000211594
0.0266373
0.000195813
0.0265361
0.000180412
0.0264431
0.000165345
0.0263581
0.000150567
0.026281
0.000136033
0.0262117
0.000121699
0.02615
0.000107523
0.0260959
9.34582e-05
0.0260494
7.94617e-05
0.0260104
6.5487e-05
0.0259789
5.14862e-05
0.025955
3.74092e-05
0.0259388
2.32025e-05
0.0259303
8.80871e-06
0.0259296
-5.83484e-06
0.025937
-2.07975e-05
0.0259526
-3.61576e-05
0.0259766
-5.20031e-05
0.0260094
-6.84353e-05
0.0260513
-8.55711e-05
0.0261027
-0.000103548
0.0261641
-0.000122529
0.0262363
-0.000142712
0.0263198
-0.000164336
0.0264155
-0.000187704
0.0265247
-0.000213194
0.0266485
-0.000241301
0.0267886
-0.000272681
0.0269471
-0.000308228
0.0271267
-0.000349207
0.027331
-0.00039746
0.0275646
-0.000455768
0.027834
-0.000528471
0.028148
-0.000622524
0.028519
-0.000749306
0.0289634
-0.000927618
0.0295014
-0.00118835
0.0301535
-0.00158078
0.0309241
-0.00217978
0.0317422
-0.00308657
-0.00437
0.032334
0.103312
0.00667204
0.108503
0.0170142
0.111577
0.022573
0.111778
0.0243724
0.109666
0.0238266
0.106078
0.0220279
0.10175
0.0197393
0.0971913
0.0174115
0.0927067
0.0152594
0.0884547
0.0133614
0.0845046
0.011727
0.0808748
0.0103349
0.0775568
0.00915312
0.0745297
0.00814892
0.0717679
0.00729255
0.0692452
0.00655867
0.0669365
0.00592624
0.064819
0.00537807
0.0628723
0.0049002
0.0610784
0.00448127
0.0594214
0.00411202
0.0578875
0.00378492
0.0564644
0.00349374
0.0551414
0.00323338
0.0539092
0.00299957
0.0527594
0.00278877
0.0516848
0.00259799
0.0506789
0.00242473
0.0497359
0.00226683
0.0488508
0.0021225
0.0480189
0.00199016
0.0472362
0.00186848
0.046499
0.00175629
0.0458041
0.0016526
0.0451483
0.00155651
0.0445291
0.00146727
0.0439441
0.0013842
0.0433909
0.00130671
0.0428676
0.00123426
0.0423724
0.0011664
0.0419035
0.00110271
0.0414595
0.00104281
0.041039
0.000986372
0.0406406
0.000933101
0.0402633
0.000882726
0.0399058
0.000835002
0.0395673
0.000789708
0.0392468
0.000746644
0.0389435
0.000705626
0.0386566
0.000666487
0.0383853
0.000629071
0.0381292
0.000593238
0.0378874
0.000558856
0.0376595
0.000525803
0.037445
0.000493967
0.0372435
0.000463241
0.0370544
0.000433525
0.0368774
0.000404727
0.0367122
0.000376757
0.0365585
0.00034953
0.0364159
0.000322965
0.0362842
0.000296984
0.0361632
0.00027151
0.0360527
0.000246469
0.0359525
0.000221788
0.0358626
0.000197392
0.0357828
0.000173208
0.0357131
0.000149162
0.0356533
0.000125176
0.0356036
0.000101171
0.0355639
7.70636e-05
0.0355342
5.27659e-05
0.0355148
2.81829e-05
0.0355057
3.21175e-06
0.0355071
-2.22609e-05
0.0355192
-4.83618e-05
0.0355424
-7.52345e-05
0.0355769
-0.000103042
0.0356232
-0.000131973
0.0356819
-0.000162247
0.0357534
-0.000194124
0.0358385
-0.000227918
0.0359381
-0.000264007
0.0360531
-0.000302863
0.0361849
-0.000345076
0.0363349
-0.000391404
0.036505
-0.00044284
0.0366974
-0.000500713
0.0369149
-0.000566847
0.0371612
-0.000643813
0.0374406
-0.000735325
0.0377589
-0.000846863
0.038123
-0.00098666
0.0385407
-0.00116718
0.0390203
-0.00140726
0.0395665
-0.00173469
0.0401742
-0.0021884
0.0408116
-0.00281728
0.0413925
-0.00366757
-0.00473652
0.0417588
0.102078
0.00459429
0.106349
0.0127431
0.110421
0.0185007
0.113051
0.0217424
0.11392
0.0229575
0.113209
0.0227393
0.11131
0.0216382
0.108635
0.0200857
0.105524
0.0183707
0.102221
0.0166647
0.098889
0.0150589
0.0956299
0.0135939
0.0925023
0.0122807
0.0895362
0.0111149
0.086744
0.0100848
0.0841269
0.0091757
0.0816801
0.00837298
0.0793953
0.00766286
0.0772625
0.00703299
0.0752711
0.00647258
0.0734108
0.00597231
0.0716714
0.00552421
0.0700437
0.00512145
0.0685188
0.00475824
0.0670887
0.00442961
0.0657461
0.00413132
0.0644844
0.00385974
0.0632973
0.00361175
0.0621794
0.00338467
0.0611257
0.00317616
0.0601316
0.00298421
0.059193
0.00280707
0.058306
0.00264321
0.0574673
0.00249128
0.0566737
0.0023501
0.0559223
0.00221863
0.0552105
0.00209596
0.0545359
0.00198126
0.0538963
0.00187381
0.0532897
0.00177297
0.0527142
0.00167815
0.0521682
0.00158883
0.05165
0.00150454
0.0511582
0.00142487
0.0506914
0.00134943
0.0502485
0.00127787
0.0498283
0.00120988
0.0494297
0.00114516
0.0490519
0.00108347
0.0486938
0.00102454
0.0483546
0.000968171
0.0480337
0.000914144
0.0477302
0.000862273
0.0474436
0.00081238
0.0471732
0.0007643
0.0469185
0.000717879
0.046679
0.000672971
0.0464543
0.00062944
0.0462438
0.000587154
0.0460473
0.000545991
0.0458644
0.00050583
0.0456948
0.000466556
0.0455382
0.000428058
0.0453944
0.000390226
0.0452632
0.000352953
0.0451444
0.00031613
0.0450379
0.00027965
0.0449436
0.000243404
0.0448614
0.00020728
0.0447914
0.000171162
0.0447334
0.00013493
0.0446877
9.84552e-05
0.0446542
6.16019e-05
0.0446331
2.42221e-05
0.0446247
-1.38457e-05
0.044629
-5.27817e-05
0.0446465
-9.27885e-05
0.0446775
-0.000134096
0.0447224
-0.000176968
0.0447818
-0.000221712
0.0448563
-0.000268686
0.0449466
-0.000318322
0.0450537
-0.000371136
0.0451785
-0.000427764
0.0453223
-0.000488994
0.0454866
-0.000555824
0.0456732
-0.000629536
0.0458842
-0.000711809
0.0461221
-0.000804884
0.04639
-0.000911805
0.0466914
-0.00103678
0.0470302
-0.00118572
0.0474104
-0.00136695
0.0478353
-0.00159222
0.0483058
-0.00187783
0.0488166
-0.00224557
0.0493505
-0.00272229
0.0498689
-0.00333576
0.0503036
-0.00410233
-0.00499894
0.0505658
0.101292
0.00330186
0.104406
0.00962964
0.108106
0.0148002
0.111409
0.0184393
0.113759
0.020608
0.114957
0.0215414
0.115056
0.021539
0.114242
0.0208993
0.112741
0.0198719
0.110763
0.0186427
0.108483
0.017339
0.106035
0.0160419
0.103516
0.0147992
0.100995
0.0136358
0.0985175
0.0125624
0.0961124
0.0115808
0.0937975
0.0106878
0.0915825
0.00987776
0.0894718
0.00914368
0.0874659
0.00847841
0.0855632
0.00787502
0.0837603
0.007327
0.0820533
0.00682841
0.0804376
0.00637392
0.0789084
0.00595878
0.0774609
0.00557875
0.0760905
0.00523011
0.0747926
0.00490958
0.073563
0.00461424
0.0723976
0.00434154
0.0712926
0.00408922
0.0702443
0.00385527
0.0692496
0.00363793
0.0683052
0.00343563
0.0674083
0.00324696
0.0665562
0.00307069
0.0657464
0.0029057
0.0649766
0.002751
0.0642447
0.00260569
0.0635487
0.00246898
0.0628866
0.00234014
0.0622569
0.00221852
0.0616579
0.00210353
0.0610881
0.00199463
0.0605462
0.00189133
0.0600308
0.0017932
0.0595408
0.00169982
0.0590751
0.00161082
0.0586327
0.00152586
0.0582126
0.00144463
0.0578139
0.00136683
0.0574358
0.00129219
0.0570775
0.00122047
0.0567384
0.00115143
0.0564179
0.00108485
0.0561152
0.00102053
0.0558298
0.000958271
0.0555613
0.000897896
0.0553092
0.000839228
0.055073
0.000782103
0.0548525
0.000726361
0.0546471
0.000671847
0.0544567
0.000618412
0.054281
0.000565909
0.0541197
0.000514194
0.0539726
0.000463123
0.0538397
0.000412551
0.0537207
0.000362332
0.0536156
0.000312318
0.0535244
0.000262354
0.053447
0.00021228
0.0533834
0.000161927
0.0533339
0.000111115
0.0532984
5.96491e-05
0.0532771
7.3182e-06
0.0532704
-4.61115e-05
0.0532785
-0.000100902
0.0533016
-0.000157349
0.0533404
-0.000215791
0.0533952
-0.000276617
0.0534667
-0.000340281
0.0535557
-0.000407319
0.0536628
-0.000478373
0.0537892
-0.000554218
0.0539359
-0.000635807
0.0541043
-0.000724324
0.0542959
-0.000821258
0.0545125
-0.000928517
0.0547561
-0.00104857
0.0550289
-0.00118465
0.0553331
-0.00134106
0.0556708
-0.00152351
0.0560434
-0.00173961
0.0564505
-0.0019994
0.0568882
-0.0023157
0.0573467
-0.00270407
0.0578057
-0.00318134
0.0582313
-0.00376138
0.058575
-0.00444621
-0.00521094
0.0587868
0.100819
0.00248312
0.103016
0.00743192
0.105989
0.0118274
0.109103
0.0153254
0.111872
0.0178391
0.113994
0.0194196
0.115338
0.020194
0.11591
0.0203279
0.115791
0.0199906
0.115102
0.0193314
0.11397
0.0184711
0.112511
0.0175007
0.110825
0.0164855
0.108991
0.0154696
0.107072
0.0144813
0.105115
0.0135377
0.103155
0.012648
0.101217
0.0118162
0.0993176
0.0110427
0.0974699
0.0103261
0.0956814
0.00966349
0.0939569
0.0090515
0.0922988
0.00848645
0.090708
0.00796462
0.0891844
0.0074824
0.0877267
0.00703638
0.0863334
0.00662339
0.0850024
0.0062405
0.0837316
0.00588502
0.0825186
0.00555453
0.081361
0.00524681
0.0802563
0.00495987
0.0792023
0.0046919
0.0781966
0.00444126
0.0772371
0.00420648
0.0763215
0.00398623
0.0754479
0.00377928
0.0746143
0.00358456
0.0738188
0.00340107
0.0730599
0.00322791
0.0723357
0.00306426
0.0716448
0.00290937
0.0709857
0.00276257
0.0703571
0.00262322
0.0697576
0.00249076
0.0691861
0.00236467
0.0686414
0.00224447
0.0681225
0.0021297
0.0676284
0.00201998
0.0671581
0.0019149
0.0667107
0.00181413
0.0662855
0.00171733
0.0658818
0.0016242
0.0654987
0.00153446
0.0651357
0.00144784
0.0647921
0.00136408
0.0644673
0.00128294
0.064161
0.0012042
0.0638725
0.00112765
0.0636015
0.00105308
0.0633475
0.00098028
0.0631103
0.000909068
0.0628894
0.000839254
0.0626846
0.000770655
0.0624956
0.000703088
0.0623223
0.000636374
0.0621645
0.000570331
0.062022
0.000504778
0.0618947
0.000439526
0.0617827
0.000374384
0.0616857
0.000309153
0.061604
0.000243621
0.0615375
0.000177566
0.0614863
0.000110747
0.0614507
4.29053e-05
0.0614307
-2.62448e-05
0.0614268
-9.70209e-05
0.0614392
-0.00016978
0.0614682
-0.000244927
0.0615145
-0.000322926
0.0615784
-0.00040431
0.0616607
-0.000489707
0.0617621
-0.000579856
0.0618835
-0.000675642
0.0620257
-0.000778132
0.0621899
-0.00088863
0.0623773
-0.00100875
0.0625892
-0.00114048
0.0628269
-0.00128636
0.0630917
-0.00144957
0.0633847
-0.00163417
0.0637065
-0.00184529
0.0640562
-0.00208943
0.0644312
-0.00237454
0.0648255
-0.00271006
0.0652277
-0.00310632
0.0656193
-0.00357296
0.0659735
-0.00411561
0.0662574
-0.00473022
-0.00539557
0.0664418
0.100541
0.0019421
0.102094
0.00587925
0.104371
0.00954983
0.107001
0.0126961
0.109636
0.0152035
0.112006
0.0170495
0.113931
0.018269
0.115322
0.0189375
0.116161
0.0191513
0.116482
0.0190103
0.116346
0.0186067
0.115827
0.0180196
0.115
0.0173132
0.113932
0.0165371
0.112685
0.0157284
0.111309
0.0149136
0.109846
0.0141111
0.108329
0.0133331
0.106784
0.0125871
0.105233
0.0118776
0.10369
0.0112064
0.102167
0.0105742
0.100674
0.00998013
0.0992152
0.009423
0.0977965
0.00890105
0.0964205
0.00841233
0.0950891
0.00795478
0.0938032
0.00752633
0.0925632
0.00712497
0.0913689
0.00674876
0.0902199
0.00639584
0.0891152
0.0060645
0.088054
0.00575312
0.087035
0.00546021
0.0860571
0.00518436
0.0851189
0.00492431
0.0842193
0.00467887
0.0833569
0.00444695
0.0825304
0.00422754
0.0817385
0.00401973
0.0809801
0.00382267
0.0802539
0.00363557
0.0795587
0.0034577
0.0788935
0.00328841
0.0782571
0.00312707
0.0776486
0.00297311
0.0770671
0.00282601
0.0765115
0.00268527
0.075981
0.00255044
0.0754747
0.00242108
0.074992
0.00229681
0.074532
0.00217726
0.0740941
0.00206206
0.0736777
0.0019509
0.073282
0.00184347
0.0729066
0.00173947
0.0725508
0.00163863
0.0722143
0.00154067
0.0718966
0.00144536
0.0715972
0.00135244
0.0713157
0.00126168
0.0710519
0.00117285
0.0708053
0.00108574
0.0705758
0.00100011
0.0703631
0.000915763
0.070167
0.000832476
0.0699872
0.000750035
0.0698237
0.000668222
0.0696764
0.000586816
0.0695451
0.000505587
0.0694299
0.000424298
0.0693308
0.000342701
0.0692478
0.000260532
0.0691809
0.000177509
0.0691305
9.33277e-05
0.0690965
7.65606e-06
0.0690793
-7.98729e-05
0.0690791
-0.000169669
0.0690963
-0.000262194
0.0691313
-0.000357972
0.0691845
-0.000457603
0.0692565
-0.00056178
0.0693479
-0.000671314
0.0694593
-0.000787158
0.0695915
-0.000910448
0.0697454
-0.00104254
0.0699216
-0.00118508
0.0701211
-0.00134005
0.0703445
-0.00150988
0.0705924
-0.00169755
0.0708649
-0.00190668
0.0711611
-0.00214165
0.0714793
-0.00240767
0.0718154
-0.00271075
0.0721628
-0.00305744
0.0725105
-0.00345414
0.0728432
-0.00390575
0.0731409
-0.00441336
0.0733815
-0.0049709
-0.00556156
0.0735473
0.100375
0.00156758
0.10149
0.00476384
0.103212
0.00782745
0.10533
0.0105782
0.107619
0.0129148
0.109875
0.0147932
0.111935
0.0162086
0.113686
0.0171866
0.115063
0.0177744
0.116043
0.01803
0.116635
0.0180145
0.116869
0.0177863
0.116784
0.0173981
0.116426
0.0168947
0.115842
0.0163129
0.115073
0.0156822
0.114159
0.0150251
0.113133
0.0143589
0.112024
0.0136961
0.110856
0.0130457
0.109649
0.0124138
0.108418
0.0118045
0.107178
0.0112204
0.105938
0.0106626
0.104708
0.0101316
0.103493
0.00962733
0.102298
0.00914912
0.101128
0.00869614
0.099986
0.00826732
0.0988732
0.00786153
0.0977914
0.00747756
0.0967417
0.00711418
0.0957246
0.00677019
0.0947404
0.00644442
0.093789
0.00613573
0.0928702
0.00584304
0.0919837
0.00556532
0.091129
0.0053016
0.0903056
0.00505098
0.0895127
0.00481258
0.0887497
0.0045856
0.0880159
0.0043693
0.0873107
0.00416295
0.0866331
0.00396591
0.0859826
0.00377755
0.0853584
0.00359729
0.0847598
0.0034246
0.084186
0.00325896
0.0836365
0.00309989
0.0831106
0.00294696
0.0826077
0.00279973
0.0821271
0.00265781
0.0816683
0.00252082
0.0812307
0.00238841
0.0808139
0.00226023
0.0804174
0.00213598
0.0800406
0.00201534
0.0796833
0.00189801
0.0793449
0.00178372
0.0790251
0.00167219
0.0787235
0.00156317
0.0784399
0.00145638
0.078174
0.00135159
0.0779256
0.00124854
0.0776943
0.00114698
0.0774801
0.00104668
0.0772827
0.000947387
0.077102
0.00084885
0.0769379
0.000750817
0.0767904
0.000653028
0.0766595
0.000555211
0.076545
0.000457084
0.0764471
0.000358348
0.0763659
0.000258684
0.0763014
0.000157748
0.0762539
5.51696e-05
0.0762234
-4.94605e-05
0.0762103
-0.000156595
0.0762147
-0.000266739
0.0762372
-0.000380463
0.0762779
-0.000498413
0.0763374
-0.000621326
0.076416
-0.000750054
0.0765144
-0.000885584
0.0766329
-0.00102907
0.0767722
-0.00118187
0.0769326
-0.00134558
0.0771145
-0.00152209
0.0773182
-0.00171365
0.0775435
-0.00192291
0.0777897
-0.00215296
0.0780554
-0.00240738
0.0783378
-0.00269019
0.0786327
-0.00300573
0.0789335
-0.00335827
0.0792308
-0.00375149
0.0795123
-0.00418734
0.0797635
-0.00466458
0.0799694
-0.0051769
-0.0057113
0.080119
0.10027
0.00129718
0.101091
0.00394328
0.102399
0.00651935
0.104076
0.00890154
0.10598
0.01101
0.107973
0.0128007
0.109927
0.0142548
0.111738
0.0153749
0.113333
0.01618
0.114662
0.0167005
0.115704
0.0169726
0.116455
0.017035
0.116927
0.0169258
0.117142
0.0166801
0.117126
0.0163294
0.116907
0.0159008
0.116515
0.0154167
0.115978
0.0148958
0.115322
0.0143526
0.114569
0.0137989
0.113739
0.0132435
0.11285
0.0126932
0.111918
0.0121529
0.110954
0.0116262
0.10997
0.0111156
0.108974
0.0106227
0.107975
0.0101483
0.106978
0.00969305
0.105989
0.00925688
0.105011
0.00883963
0.104047
0.00844088
0.103101
0.00806008
0.102175
0.00769659
0.10127
0.00734969
0.100387
0.00701865
0.0995269
0.0067027
0.0986911
0.00640108
0.0978796
0.00611305
0.0970927
0.00583787
0.0963304
0.00557483
0.0955927
0.00532324
0.0948796
0.00508244
0.0941907
0.00485182
0.0935258
0.00463075
0.0928846
0.00441869
0.0922668
0.00421507
0.091672
0.00401938
0.0910998
0.00383114
0.0905498
0.00364987
0.0900215
0.00347513
0.0895147
0.00330651
0.0890289
0.00314359
0.0885637
0.002986
0.0881187
0.00283337
0.0876935
0.00268536
0.0872878
0.00254161
0.0869013
0.00240182
0.0865336
0.00226568
0.0861844
0.00213287
0.0858534
0.00200312
0.0855404
0.00187613
0.0852451
0.00175163
0.0849673
0.00162934
0.0847068
0.001509
0.0844634
0.00139034
0.084237
0.00127308
0.0840273
0.00115696
0.0838344
0.0010417
0.0836582
0.000927018
0.0834985
0.000812636
0.0833554
0.00069825
0.0832289
0.000583549
0.083119
0.000468205
0.0830258
0.00035187
0.0829493
0.000234169
0.0828897
0.000114698
0.0828472
-6.98264e-06
0.0828219
-0.000131358
0.082814
-0.000258964
0.0828239
-0.000390401
0.0828518
-0.000526341
0.0828979
-0.000667545
0.0829627
-0.000814877
0.0830463
-0.000969324
0.0831492
-0.00113202
0.0832715
-0.00130428
0.0834135
-0.0014876
0.083575
-0.00168372
0.0837559
-0.00189465
0.0839556
-0.00212266
0.0841729
-0.00237031
0.0844059
-0.00264043
0.0846516
-0.002936
0.0849058
-0.00326
0.0851626
-0.00361508
0.0854141
-0.00400304
0.0856508
-0.00442413
0.0858622
-0.00487604
0.0860381
-0.00535294
-0.00584481
0.0861715
0.100202
0.00109472
0.100822
0.00332393
0.101828
0.00551296
0.103154
0.0075759
0.104711
0.00945238
0.106407
0.0111045
0.108151
0.0125111
0.10986
0.0136656
0.111467
0.0145731
0.11292
0.0152476
0.114184
0.0157092
0.115237
0.0159815
0.116073
0.0160898
0.116694
0.0160594
0.117109
0.0159142
0.117333
0.0156765
0.117384
0.0153658
0.11728
0.0149992
0.117042
0.0145914
0.116686
0.0141544
0.116231
0.0136983
0.115693
0.0132313
0.115086
0.0127599
0.114423
0.0122891
0.113716
0.011823
0.112974
0.0113645
0.112206
0.0109159
0.11142
0.010479
0.110623
0.0100547
0.109818
0.00964376
0.109013
0.00924668
0.108209
0.00886361
0.107411
0.0084945
0.106622
0.0081392
0.105843
0.00779743
0.105077
0.00746882
0.104325
0.00715298
0.103588
0.00684944
0.102868
0.00655771
0.102166
0.00627731
0.101481
0.00600772
0.100815
0.00574845
0.100168
0.005499
0.0995399
0.00525887
0.098931
0.00502759
0.0983413
0.00480469
0.097771
0.0045897
0.0972199
0.00438221
0.0966879
0.00418177
0.096175
0.00398798
0.0956811
0.00380045
0.0952058
0.00361879
0.0947492
0.00344264
0.0943109
0.00327163
0.0938907
0.00310543
0.0934886
0.0029437
0.0931043
0.00278613
0.0927375
0.00263238
0.0923882
0.00248217
0.0920561
0.00233518
0.091741
0.00219113
0.0914429
0.00204972
0.0911615
0.00191068
0.0908968
0.00177371
0.0906485
0.00163853
0.0904167
0.00150486
0.0902012
0.0013724
0.090002
0.00124088
0.089819
0.00110998
0.0896522
0.0009794
0.0895015
0.000848822
0.0893671
0.000717912
0.089249
0.000586321
0.0891471
0.000453676
0.0890616
0.000319582
0.0889927
0.000183613
0.0889403
4.53058e-05
0.0889047
-9.58439e-05
0.0888861
-0.000240391
0.0888846
-0.00038895
0.0889004
-0.000542202
0.0889337
-0.000700908
0.0889847
-0.000865923
0.0890535
-0.00103821
0.0891402
-0.00121885
0.0892449
-0.00140907
0.0893675
-0.00161025
0.0895077
-0.00182394
0.0896648
-0.00205189
0.0898381
-0.00229599
0.090026
-0.0025583
0.0902265
-0.00284098
0.0904366
-0.00314617
0.0906524
-0.00347582
0.0908686
-0.0038314
0.0910791
-0.00421357
0.0912765
-0.00462157
0.0914531
-0.00505276
0.0916021
-0.00550202
-0.00596155
0.0917187
0.100156
0.000938388
0.100635
0.00284471
0.101423
0.00472564
0.102478
0.0065203
0.103747
0.00818332
0.105168
0.00968384
0.106677
0.0110024
0.108213
0.0121297
0.109721
0.0130645
0.111156
0.0138125
0.112481
0.0143841
0.11367
0.014793
0.114704
0.0150553
0.115576
0.015188
0.116282
0.0152082
0.116826
0.0151325
0.117215
0.0149767
0.117459
0.0147551
0.11757
0.0144804
0.11756
0.0141641
0.117442
0.0138157
0.11723
0.0134438
0.116934
0.0130553
0.116567
0.0126561
0.116139
0.012251
0.11566
0.011844
0.115137
0.0114382
0.11458
0.0110362
0.113995
0.01064
0.113388
0.010251
0.112764
0.00987036
0.112128
0.00949901
0.111485
0.00913748
0.110838
0.00878614
0.110191
0.00844518
0.109545
0.00811468
0.108903
0.0077946
0.108268
0.00748482
0.10764
0.00718514
0.107022
0.00689531
0.106415
0.00661507
0.105819
0.0063441
0.105236
0.00608207
0.104666
0.00582864
0.10411
0.00558345
0.103569
0.00534614
0.103042
0.00511637
0.102531
0.00489376
0.102034
0.00467797
0.101554
0.00446865
0.101089
0.00426545
0.100639
0.00406802
0.100206
0.00387604
0.0997883
0.00368919
0.0993866
0.00350713
0.0990007
0.00332956
0.0986306
0.00315617
0.0982763
0.00298665
0.0979377
0.0028207
0.0976148
0.00265804
0.0973075
0.00249836
0.0970158
0.00234138
0.0967397
0.00218681
0.096479
0.00203436
0.0962337
0.00188374
0.0960039
0.00173465
0.0957894
0.0015868
0.0955904
0.0014399
0.0954067
0.00129361
0.0952384
0.00114764
0.0950855
0.00100164
0.0949481
0.00085527
0.0948262
0.000708164
0.0947199
0.000559938
0.0946293
0.000410181
0.0945544
0.000258456
0.0944953
0.000104288
0.0944522
-5.28369e-05
0.0944253
-0.000213479
0.0944145
-0.000378254
0.0944201
-0.000547834
0.0944421
-0.000722967
0.0944806
-0.000904475
0.0945356
-0.00109327
0.094607
-0.00129038
0.0946948
-0.00149691
0.0947986
-0.0017141
0.0949179
-0.00194331
0.0950519
-0.00218601
0.0951996
-0.00244375
0.0953594
-0.00271814
0.0955292
-0.00301079
0.0957061
-0.00332317
0.0958867
-0.00365647
0.0960666
-0.00401138
0.0962408
-0.0043878
0.0964037
-0.00478453
0.0965497
-0.00519889
0.0966741
-0.00562651
-0.00606126
0.0967738
0.100124
0.000814542
0.100503
0.00246542
0.10113
0.00409869
0.10198
0.00567008
0.103018
0.00714516
0.104203
0.00849919
0.10549
0.00971542
0.106835
0.0107843
0.108198
0.0117022
0.109539
0.0124708
0.110828
0.0130951
0.112038
0.0135831
0.113149
0.0139446
0.114146
0.0141907
0.115021
0.0143333
0.115769
0.0143843
0.11639
0.0143555
0.116887
0.014258
0.117265
0.0141024
0.117531
0.0138982
0.117692
0.0136541
0.117758
0.0133779
0.117737
0.0130763
0.117638
0.0127552
0.117469
0.0124196
0.117239
0.012074
0.116956
0.0117219
0.116625
0.0113663
0.116255
0.0110099
0.115852
0.0106547
0.11542
0.0103024
0.114964
0.00995433
0.11449
0.00961161
0.114001
0.00927505
0.113501
0.0089453
0.112993
0.0086228
0.11248
0.00830788
0.111964
0.00800075
0.111447
0.00770149
0.110932
0.00741015
0.110421
0.00712666
0.109914
0.00685094
0.109413
0.00658284
0.108919
0.00632219
0.108434
0.00606879
0.107958
0.0058224
0.107491
0.0055828
0.107035
0.00534971
0.10659
0.00512289
0.106157
0.00490205
0.105735
0.00468692
0.105326
0.00447723
0.10493
0.00427269
0.104546
0.00407302
0.104175
0.00387794
0.103817
0.00368717
0.103473
0.00350043
0.103142
0.00331744
0.102825
0.00313792
0.102521
0.00296159
0.102231
0.00278818
0.101955
0.0026174
0.101693
0.00244896
0.101445
0.0022826
0.10121
0.00211801
0.10099
0.00195491
0.100784
0.001793
0.100592
0.00163198
0.100414
0.00147152
0.10025
0.00131131
0.100101
0.00115102
0.0999656
0.000990279
0.099845
0.000828728
0.0997389
0.000665975
0.0996474
0.000501606
0.0995707
0.000335178
0.0995087
0.000166216
0.0994616
-5.79135e-06
0.0994294
-0.000181401
0.0994123
-0.000361215
0.0994103
-0.000545887
0.0994234
-0.000736132
0.0994516
-0.000932731
0.0994948
-0.00113653
0.0995529
-0.00134847
0.0996254
-0.00156955
0.0997121
-0.00180086
0.0998123
-0.00204356
0.0999251
-0.00229886
0.100049
-0.00256801
0.100183
-0.00285225
0.100325
-0.00315271
0.100472
-0.00347037
0.100622
-0.00380588
0.10077
-0.0041594
0.100912
-0.00453042
0.101045
-0.00491752
0.101164
-0.0053182
0.101267
-0.00572875
-0.00614433
0.10135
0.1001
0.000714316
0.100406
0.00215911
0.100914
0.00359075
0.101608
0.00497619
0.102464
0.00628888
0.103455
0.00750892
0.104548
0.00862215
0.105712
0.00961971
0.106917
0.0104974
0.108133
0.0112547
0.109335
0.011894
0.110498
0.0124198
0.111604
0.0128383
0.112638
0.0131569
0.113588
0.0133834
0.114446
0.0135264
0.115207
0.0135945
0.115869
0.0135959
0.116432
0.0135389
0.116899
0.0134312
0.117273
0.01328
0.117559
0.013092
0.117762
0.0128732
0.117888
0.012629
0.117944
0.0123642
0.117935
0.0120831
0.117867
0.0117894
0.117747
0.0114863
0.11758
0.0111767
0.117372
0.0108629
0.117128
0.0105469
0.116851
0.0102305
0.116548
0.00991506
0.116221
0.00960178
0.115875
0.00929163
0.115512
0.00898538
0.115136
0.00868367
0.11475
0.00838697
0.114356
0.00809565
0.113956
0.00780999
0.113552
0.00753016
0.113147
0.00725627
0.112742
0.00698837
0.112337
0.00672645
0.111936
0.00647047
0.111538
0.00622034
0.111144
0.00597595
0.110757
0.00573715
0.110376
0.00550379
0.110002
0.00527568
0.109637
0.00505264
0.109279
0.00483445
0.108931
0.0046209
0.108592
0.00441177
0.108263
0.00420682
0.107945
0.00400583
0.107636
0.00380855
0.107339
0.00361474
0.107053
0.00342415
0.106778
0.00323652
0.106514
0.0030516
0.106263
0.00286912
0.106023
0.00268883
0.105795
0.00251046
0.105579
0.00233371
0.105376
0.00215833
0.105185
0.001984
0.105006
0.00181044
0.10484
0.00163733
0.104687
0.00146436
0.104547
0.00129118
0.10442
0.00111746
0.104306
0.000942821
0.104205
0.000766875
0.104117
0.000589214
0.104043
0.000409401
0.103982
0.000226968
0.103935
4.14155e-05
0.103901
-0.000147799
0.103881
-0.000341254
0.103875
-0.000539574
0.103882
-0.000743431
0.103903
-0.000953552
0.103937
-0.00117072
0.103984
-0.00139576
0.104044
-0.00162958
0.104116
-0.0018731