/*--------------------------------*- C++ -*----------------------------------*\
| =========                 |                                                 |
| \\      /  F ield         | OpenFOAM: The Open Source CFD Toolbox           |
|  \\    /   O peration     | Version:  2406                                  |
|   \\  /    A nd           | Website:  www.openfoam.com                      |
|    \\/     M anipulation  |                                                 |
\*---------------------------------------------------------------------------*/
FoamFile
{
    version     2.0;
    format      ascii;
    arch        "LSB;label=32;scalar=64";
    class       surfaceScalarField;
    location    "100";
    object      phi;
}
// * * * * * * * * * * * * * * * * * * * * * * * * * * * * * * * * * * * * * //

dimensions      [0 3 -1 0 0 0 0];

oriented        oriented;

internalField   nonuniform List<scalar> 
24170
(
3.13974e-06
4.86668e-08
3.1026e-06
3.71311e-08
3.07794e-06
2.46568e-08
3.05739e-06
2.0543e-08
3.03903e-06
1.83463e-08
3.02243e-06
1.65984e-08
3.00706e-06
1.53651e-08
2.9925e-06
1.45485e-08
2.97844e-06
1.40485e-08
2.96459e-06
1.38508e-08
2.95058e-06
1.39959e-08
2.93599e-06
1.45884e-08
2.92014e-06
1.58466e-08
2.9017e-06
1.84349e-08
2.87817e-06
2.35222e-08
2.83932e-06
3.88379e-08
2.75124e-06
8.80712e-08
1.56241e-07
2.595e-06
3.41149e-06
5.44235e-08
3.38952e-06
5.91005e-08
3.36627e-06
4.78962e-08
3.34519e-06
4.16236e-08
3.32632e-06
3.72006e-08
3.30915e-06
3.37651e-08
3.29317e-06
3.13405e-08
3.27802e-06
2.96907e-08
3.26341e-06
2.86497e-08
3.24907e-06
2.81924e-08
3.23468e-06
2.8377e-08
3.21987e-06
2.93871e-08
3.2042e-06
3.15176e-08
3.18673e-06
3.58996e-08
3.16684e-06
4.34054e-08
3.14171e-06
6.39615e-08
3.12606e-06
1.03706e-07
1.93763e-07
3.08854e-06
3.6677e-06
4.92369e-08
3.66016e-06
6.66388e-08
3.64626e-06
6.1792e-08
3.63037e-06
5.75055e-08
3.61438e-06
5.31818e-08
3.59891e-06
4.92227e-08
3.584e-06
4.62465e-08
3.56951e-06
4.41803e-08
3.55525e-06
4.2897e-08
3.54103e-06
4.24074e-08
3.52659e-06
4.28146e-08
3.51159e-06
4.43839e-08
3.49559e-06
4.75107e-08
3.47794e-06
5.35425e-08
3.45789e-06
6.34451e-08
3.43636e-06
8.54862e-08
3.42171e-06
1.18353e-07
1.92143e-07
3.42333e-06
3.93329e-06
4.13345e-08
3.93425e-06
6.56769e-08
3.92886e-06
6.71731e-08
3.91982e-06
6.65357e-08
3.90877e-06
6.42304e-08
3.89679e-06
6.11891e-08
3.88442e-06
5.8612e-08
3.87182e-06
5.67793e-08
3.85898e-06
5.57222e-08
3.84584e-06
5.55463e-08
3.83222e-06
5.64317e-08
3.81787e-06
5.87211e-08
3.80248e-06
6.28962e-08
3.78572e-06
7.02941e-08
3.76725e-06
8.19069e-08
3.74923e-06
1.03501e-07
3.7347e-06
1.32879e-07
1.86461e-07
3.74038e-06
4.21463e-06
3.38348e-08
4.21936e-06
6.09362e-08
4.21946e-06
6.70621e-08
4.21624e-06
6.9754e-08
4.21037e-06
7.0091e-08
4.20268e-06
6.88753e-08
4.19378e-06
6.7506e-08
4.18399e-06
6.6556e-08
4.17347e-06
6.62342e-08
4.16225e-06
6.67611e-08
4.15027e-06
6.84068e-08
4.13741e-06
7.1577e-08
4.1235e-06
7.68024e-08
4.10853e-06
8.52603e-08
4.09258e-06
9.78495e-08
4.07792e-06
1.18157e-07
4.06643e-06
1.44358e-07
1.82658e-07
4.07023e-06
4.51531e-06
2.76115e-08
4.52116e-06
5.50837e-08
4.52398e-06
6.42302e-08
4.52445e-06
6.92753e-08
4.52262e-06
7.19177e-08
4.5188e-06
7.26906e-08
4.51341e-06
7.28851e-08
4.50675e-06
7.32112e-08
4.49898e-06
7.39922e-08
4.49021e-06
7.55294e-08
4.48045e-06
7.81602e-08
4.4697e-06
8.23221e-08
4.45795e-06
8.85443e-08
4.44543e-06
9.77721e-08
4.43256e-06
1.10711e-07
4.42141e-06
1.29302e-07
4.41372e-06
1.52043e-07
1.80031e-07
4.41634e-06
4.83762e-06
2.27063e-08
4.8434e-06
4.93045e-08
4.84723e-06
6.03918e-08
4.84953e-06
6.69654e-08
4.85016e-06
7.12808e-08
4.84909e-06
7.37491e-08
4.84652e-06
7.54476e-08
4.84261e-06
7.7113e-08
4.83748e-06
7.91187e-08
4.83121e-06
8.1794e-08
4.82386e-06
8.54982e-08
4.81552e-06
9.06581e-08
4.80631e-06
9.775e-08
4.79661e-06
1.07465e-07
4.78705e-06
1.20263e-07
4.77938e-06
1.36971e-07
4.7751e-06
1.56316e-07
1.77348e-07
4.77778e-06
5.18337e-06
1.892e-08
5.18864e-06
4.40266e-08
5.19266e-06
5.63651e-08
5.19564e-06
6.39758e-08
5.19747e-06
6.94392e-08
5.19801e-06
7.32087e-08
5.19729e-06
7.6161e-08
5.19538e-06
7.90105e-08
5.19234e-06
8.21507e-08
5.18823e-06
8.5904e-08
5.1831e-06
9.06115e-08
5.17711e-06
9.66498e-08
5.17045e-06
1.04404e-07
5.16358e-06
1.14322e-07
5.15722e-06
1.26622e-07
5.15273e-06
1.41457e-07
5.15131e-06
1.5773e-07
1.73921e-07
5.15473e-06
5.55424e-06
1.60179e-08
5.5589e-06
3.93583e-08
5.5628e-06
5.24582e-08
5.56592e-06
6.08435e-08
5.56823e-06
6.71267e-08
5.56954e-06
7.18843e-08
5.56986e-06
7.58369e-08
5.56921e-06
7.96543e-08
5.56761e-06
8.37396e-08
5.56511e-06
8.83962e-08
5.56179e-06
9.39238e-08
5.55781e-06
1.00627e-07
5.55343e-06
1.08781e-07
5.54912e-06
1.18625e-07
5.54555e-06
1.3018e-07
5.54377e-06
1.4324e-07
5.54463e-06
1.5686e-07
1.69589e-07
5.54896e-06
5.952e-06
1.37907e-08
5.95606e-06
3.5293e-08
5.95974e-06
4.8766e-08
5.96282e-06
5.77573e-08
5.96527e-06
6.4669e-08
5.96695e-06
7.02022e-08
5.96781e-06
7.49641e-08
5.9679e-06
7.95622e-08
5.96723e-06
8.43979e-08
5.96587e-06
8.97532e-08
5.96391e-06
9.58783e-08
5.96153e-06
1.02999e-07
5.95902e-06
1.11284e-07
5.95682e-06
1.20814e-07
5.95553e-06
1.3147e-07
5.95587e-06
1.4289e-07
5.95844e-06
1.54283e-07
1.64475e-07
5.96355e-06
6.37853e-06
1.20696e-08
6.38204e-06
3.17777e-08
6.3855e-06
4.53005e-08
6.3885e-06
5.47489e-08
6.39099e-06
6.21631e-08
6.39287e-06
6.83202e-08
6.39407e-06
7.37501e-08
6.39464e-06
7.89848e-08
6.39463e-06
8.4408e-08
6.3941e-06
9.02768e-08
6.39318e-06
9.67906e-08
6.39207e-06
1.04102e-07
6.39105e-06
1.12291e-07
6.39053e-06
1.21327e-07
6.39098e-06
1.31013e-07
6.39291e-06
1.40953e-07
6.39668e-06
1.50509e-07
1.58807e-07
6.40235e-06
5.742e-06
1.09012e-08
5.74458e-06
2.91886e-08
5.74734e-06
4.25344e-08
5.74983e-06
5.2246e-08
5.75198e-06
6.00069e-08
5.7537e-06
6.65933e-08
5.75495e-06
7.24915e-08
5.75576e-06
7.81711e-08
5.75617e-06
8.3986e-08
5.75628e-06
9.01675e-08
5.75618e-06
9.68746e-08
5.75607e-06
1.04209e-07
5.75617e-06
1.12186e-07
5.75677e-06
1.20722e-07
5.75819e-06
1.29588e-07
5.76073e-06
1.38411e-07
5.76455e-06
1.46677e-07
1.53723e-07
5.76963e-06
6.99925e-06
9.8041e-09
7.00187e-06
2.65606e-08
7.00485e-06
3.9547e-08
7.00767e-06
4.94128e-08
7.01021e-06
5.74617e-08
7.01237e-06
6.44307e-08
7.01409e-06
7.07596e-08
7.01541e-06
7.68459e-08
7.01639e-06
8.29992e-08
7.01713e-06
8.94172e-08
7.01778e-06
9.62188e-08
7.01853e-06
1.03451e-07
7.01962e-06
1.11088e-07
7.02133e-06
1.19004e-07
7.02394e-06
1.26976e-07
7.02767e-06
1.34681e-07
7.03261e-06
1.41732e-07
1.47651e-07
7.03867e-06
8.53188e-06
8.77313e-09
8.53451e-06
2.39191e-08
8.53772e-06
3.63292e-08
8.54094e-06
4.61842e-08
8.54398e-06
5.44151e-08
8.54673e-06
6.16717e-08
8.54913e-06
6.8346e-08
8.55121e-06
7.47568e-08
8.55305e-06
8.11569e-08
8.55475e-06
8.77033e-08
8.55649e-06
9.44734e-08
8.55846e-06
1.01475e-07
8.5609e-06
1.08647e-07
8.56404e-06
1.15858e-07
8.5681e-06
1.2291e-07
8.57322e-06
1.2955e-07
8.57944e-06
1.35513e-07
1.40463e-07
8.58662e-06
1.04002e-05
7.78347e-09
1.04029e-05
2.12443e-08
1.04064e-05
3.28284e-08
1.04101e-05
4.24403e-08
1.04138e-05
5.0679e-08
1.04174e-05
5.80687e-08
1.04208e-05
6.49378e-08
1.0424e-05
7.15333e-08
1.04271e-05
7.80393e-08
1.04303e-05
8.45698e-08
1.04336e-05
9.11638e-08
1.04372e-05
9.78038e-08
1.04415e-05
1.04414e-07
1.04464e-05
1.10878e-07
1.04523e-05
1.17037e-07
1.04591e-05
1.22714e-07
1.04669e-05
1.27742e-07
1.31895e-07
1.04755e-05
1.26778e-05
6.78228e-09
1.26806e-05
1.84335e-08
1.26845e-05
2.89052e-08
1.2689e-05
3.79621e-08
1.26937e-05
4.59503e-08
1.26985e-05
5.324e-08
1.27034e-05
6.00845e-08
1.27082e-05
6.66567e-08
1.27132e-05
7.30786e-08
1.27183e-05
7.94152e-08
1.27238e-05
8.56804e-08
1.27298e-05
9.18391e-08
1.27363e-05
9.7824e-08
1.27437e-05
1.03538e-07
1.27518e-05
1.08873e-07
1.27608e-05
1.13714e-07
1.27706e-05
1.17971e-07
1.21489e-07
1.2781e-05
1.54543e-05
5.67886e-09
1.54574e-05
1.52693e-08
1.54621e-05
2.42626e-08
1.54677e-05
3.23656e-08
1.54739e-05
3.9745e-08
1.54805e-05
4.66183e-08
1.54874e-05
5.31447e-08
1.54946e-05
5.9428e-08
1.55022e-05
6.55312e-08
1.55101e-05
7.14787e-08
1.55185e-05
7.72613e-08
1.55275e-05
8.28416e-08
1.55371e-05
8.81629e-08
1.55475e-05
9.31572e-08
1.55586e-05
9.77547e-08
1.55704e-05
1.01891e-07
1.55829e-05
1.05522e-07
1.08543e-07
1.55958e-05
1.8839e-05
4.3216e-09
1.88429e-05
1.13673e-08
1.88488e-05
1.83596e-08
1.88561e-05
2.49967e-08
1.88646e-05
3.13109e-08
1.88738e-05
3.73689e-08
1.88837e-05
4.32249e-08
1.88942e-05
4.8912e-08
1.89053e-05
5.44405e-08
1.8917e-05
5.9798e-08
1.89293e-05
6.49568e-08
1.89422e-05
6.98783e-08
1.89559e-05
7.45184e-08
1.89702e-05
7.88316e-08
1.89851e-05
8.27762e-08
1.90007e-05
8.63178e-08
1.90168e-05
8.94399e-08
9.20689e-08
1.90332e-05
2.29652e-05
2.41388e-09
2.29706e-05
6.0303e-09
2.29787e-05
1.02282e-08
2.29889e-05
1.47486e-08
2.30008e-05
1.94623e-08
2.30139e-05
2.42541e-08
2.3028e-05
2.90614e-08
2.30431e-05
3.38424e-08
2.3059e-05
3.85515e-08
2.30756e-05
4.31369e-08
2.3093e-05
4.7552e-08
2.31111e-05
5.17532e-08
2.31299e-05
5.57037e-08
2.31494e-05
5.93703e-08
2.31694e-05
6.27275e-08
2.31899e-05
6.57557e-08
2.32109e-05
6.84502e-08
7.07603e-08
2.32322e-05
1.68124e-05
6.73025e-10
1.68172e-05
1.30657e-09
1.68242e-05
3.17348e-09
1.68329e-05
6.0203e-09
1.68429e-05
9.48747e-09
1.68538e-05
1.32903e-08
1.68656e-05
1.72865e-08
1.68781e-05
2.13866e-08
1.68911e-05
2.54949e-08
1.69047e-05
2.95351e-08
1.69188e-05
3.34433e-08
1.69334e-05
3.71765e-08
1.69484e-05
4.06947e-08
1.69637e-05
4.39726e-08
1.69795e-05
4.69862e-08
1.69955e-05
4.97241e-08
1.70118e-05
5.21817e-08
5.4322e-08
1.70282e-05
1.46364e-05
-1.21131e-09
1.46415e-05
-3.73261e-09
1.46487e-05
-4.07804e-09
1.46574e-05
-2.66689e-09
1.46671e-05
-2.4871e-10
1.46777e-05
2.71609e-09
1.46889e-05
6.04518e-09
1.47007e-05
9.59333e-09
1.4713e-05
1.32211e-08
1.47257e-05
1.68233e-08
1.47388e-05
2.03341e-08
1.47522e-05
2.37032e-08
1.4766e-05
2.68953e-08
1.47801e-05
2.98819e-08
1.47944e-05
3.26459e-08
1.4809e-05
3.51743e-08
1.48237e-05
3.74666e-08
3.94908e-08
1.48385e-05
1.27423e-05
-3.36985e-09
1.27478e-05
-9.28278e-09
1.27553e-05
-1.15809e-08
1.27639e-05
-1.12579e-08
1.27733e-05
-9.65887e-09
1.27834e-05
-7.34731e-09
1.27939e-05
-4.51451e-09
1.28049e-05
-1.37072e-09
1.28162e-05
1.89356e-09
1.28278e-05
5.16367e-09
1.28398e-05
8.37216e-09
1.2852e-05
1.14687e-08
1.28645e-05
1.44173e-08
1.28772e-05
1.71909e-08
1.289e-05
1.97744e-08
1.2903e-05
2.21555e-08
1.29162e-05
2.43346e-08
2.6284e-08
1.29294e-05
1.10936e-05
-6.00055e-09
1.10998e-05
-1.55462e-08
1.11075e-05
-1.93241e-08
1.1116e-05
-1.96858e-08
1.1125e-05
-1.86812e-08
1.11344e-05
-1.68165e-08
1.11442e-05
-1.42876e-08
1.11542e-05
-1.13976e-08
1.11645e-05
-8.37232e-09
1.1175e-05
-5.3215e-09
1.11856e-05
-2.31062e-09
1.11965e-05
6.10476e-10
1.12075e-05
3.40347e-09
1.12186e-05
6.0456e-09
1.12299e-05
8.51952e-09
1.12412e-05
1.08169e-08
1.12526e-05
1.29356e-08
1.48503e-08
1.1264e-05
9.65862e-06
-9.40501e-09
9.66575e-06
-2.26928e-08
9.67364e-06
-2.72158e-08
9.68181e-06
-2.78686e-08
9.69034e-06
-2.72202e-08
9.69905e-06
-2.55276e-08
9.70781e-06
-2.30561e-08
9.71662e-06
-2.02219e-08
9.7255e-06
-1.72589e-08
9.73444e-06
-1.42642e-08
9.74342e-06
-1.13034e-08
9.75246e-06
-8.42987e-09
9.76154e-06
-5.68024e-09
9.77065e-06
-3.0773e-09
9.7798e-06
-6.34986e-10
9.78897e-06
1.63795e-09
9.79816e-06
3.74281e-09
5.65106e-09
9.80735e-06
8.40994e-06
-1.39985e-08
8.41802e-06
-3.07755e-08
8.42583e-06
-3.50408e-08
8.43352e-06
-3.55591e-08
8.44114e-06
-3.48495e-08
8.44846e-06
-3.28586e-08
8.45546e-06
-3.00582e-08
8.4622e-06
-2.69693e-08
8.46874e-06
-2.38096e-08
8.47514e-06
-2.06643e-08
8.48143e-06
-1.75997e-08
8.48765e-06
-1.46652e-08
8.49386e-06
-1.18889e-08
8.50006e-06
-9.28531e-09
8.50628e-06
-6.85993e-09
8.51252e-06
-4.61533e-09
8.5188e-06
-2.54307e-09
-6.71223e-10
8.52512e-06
7.32357e-06
-2.02866e-08
7.33228e-06
-3.94975e-08
7.33937e-06
-4.21346e-08
7.34551e-06
-4.17068e-08
7.35072e-06
-4.0061e-08
7.35491e-06
-3.70607e-08
7.35832e-06
-3.34783e-08
7.36121e-06
-2.98655e-08
7.36377e-06
-2.63718e-08
7.36614e-06
-2.30419e-08
7.36845e-06
-1.99123e-08
7.37078e-06
-1.70007e-08
7.37319e-06
-1.43098e-08
7.37574e-06
-1.18322e-08
7.37843e-06
-9.55847e-09
7.38128e-06
-7.47716e-09
7.38431e-06
-5.57272e-09
-3.85333e-09
7.38749e-06
6.37849e-06
-2.87102e-08
6.38635e-06
-4.73684e-08
6.39044e-06
-4.62275e-08
6.39204e-06
-4.33156e-08
6.39168e-06
-3.97016e-08
6.38997e-06
-3.53557e-08
6.38757e-06
-3.10927e-08
6.38495e-06
-2.72468e-08
6.38236e-06
-2.3789e-08
6.37998e-06
-2.06644e-08
6.3779e-06
-1.78424e-08
6.3762e-06
-1.52969e-08
6.37488e-06
-1.2998e-08
6.37396e-06
-1.09199e-08
6.37344e-06
-9.04093e-09
6.3733e-06
-7.33905e-09
6.37352e-06
-5.79539e-09
-4.38121e-09
6.37404e-06
5.55534e-06
-3.85851e-08
5.55755e-06
-4.95881e-08
5.5533e-06
-4.19802e-08
5.54578e-06
-3.58025e-08
5.53689e-06
-3.08238e-08
5.52789e-06
-2.63587e-08
5.5194e-06
-2.26088e-08
5.51166e-06
-1.95096e-08
5.50473e-06
-1.68664e-08
5.49862e-06
-1.45587e-08
5.4933e-06
-1.25266e-08
5.48873e-06
-1.07272e-08
5.48485e-06
-9.1256e-09
5.48162e-06
-7.69461e-09
5.47899e-06
-6.41463e-09
5.47692e-06
-5.26871e-09
5.47536e-06
-4.23935e-09
-3.31042e-09
5.47428e-06
4.83295e-06
-4.39298e-08
4.81943e-06
-3.60757e-08
4.80085e-06
-2.34014e-08
4.78292e-06
-1.78862e-08
4.76707e-06
-1.49744e-08
4.75335e-06
-1.26467e-08
4.74149e-06
-1.07541e-08
4.7312e-06
-9.22839e-09
4.72227e-06
-7.94127e-09
4.71453e-06
-6.82179e-09
4.70784e-06
-5.84087e-09
4.70208e-06
-4.97658e-09
4.69716e-06
-4.21068e-09
4.69299e-06
-3.52989e-09
4.6895e-06
-2.92555e-09
4.68663e-06
-2.40135e-09
4.68436e-06
-1.97893e-09
-2.14347e-09
4.68319e-06
4.15875e-06
4.12267e-06
4.09927e-06
4.08138e-06
4.06641e-06
4.05376e-06
4.043e-06
4.03377e-06
4.02583e-06
4.01901e-06
4.01317e-06
4.00819e-06
4.00398e-06
4.00045e-06
3.99752e-06
3.99512e-06
3.99314e-06
3.991e-06
1.31956e-08
-1.32309e-08
2.70013e-08
-1.38361e-08
4.03803e-08
-1.34066e-08
5.31305e-08
-1.27828e-08
6.50406e-08
-1.1939e-08
7.58585e-08
-1.08527e-08
8.53554e-08
-9.52662e-09
9.32894e-08
-7.97159e-09
9.94582e-08
-6.20002e-09
1.03643e-07
-4.22506e-09
1.05671e-07
-2.06134e-09
1.05354e-07
2.73188e-10
1.02564e-07
2.75739e-09
9.71454e-08
5.37352e-09
8.90011e-08
8.11157e-09
7.79893e-08
1.0967e-08
6.40181e-08
1.39405e-08
4.69354e-08
1.70379e-08
2.66347e-08
2.02704e-08
2.93566e-09
2.36543e-08
-2.43071e-08
2.72134e-08
-5.53266e-08
3.09742e-08
-9.03188e-08
3.49621e-08
-1.2957e-07
3.92045e-08
-1.73334e-07
4.37317e-08
-2.21954e-07
4.85732e-08
-2.75745e-07
5.37575e-08
-3.35102e-07
5.93098e-08
-4.00389e-07
6.52521e-08
-4.72038e-07
7.16013e-08
-5.50439e-07
7.83671e-08
-6.36036e-07
8.55498e-08
-7.2921e-07
9.31384e-08
-8.30363e-07
1.01106e-07
-9.39806e-07
1.09408e-07
-1.05783e-06
1.1798e-07
-1.1846e-06
1.26734e-07
-1.32021e-06
1.35565e-07
-1.4646e-06
1.44351e-07
-1.61761e-06
1.52958e-07
-1.7789e-06
1.61249e-07
-1.94803e-06
1.69089e-07
-2.12442e-06
1.76353e-07
-2.3074e-06
1.82929e-07
-2.49616e-06
1.88728e-07
-2.68989e-06
1.93682e-07
-2.88767e-06
1.97749e-07
-3.08862e-06
2.00906e-07
-3.29181e-06
2.03157e-07
-3.49638e-06
2.04522e-07
-3.70146e-06
2.0504e-07
-3.90627e-06
2.0476e-07
-4.11006e-06
2.03743e-07
-4.31218e-06
2.02053e-07
-4.51199e-06
1.99761e-07
-4.70899e-06
1.96932e-07
-4.90269e-06
1.93638e-07
-5.0927e-06
1.8994e-07
-5.27866e-06
1.85901e-07
-5.46031e-06
1.81576e-07
-5.63739e-06
1.77017e-07
-5.80973e-06
1.72269e-07
-5.97716e-06
1.67373e-07
-6.1396e-06
1.62362e-07
-6.29692e-06
1.57272e-07
-6.44912e-06
1.52125e-07
-6.59612e-06
1.46949e-07
-6.73795e-06
1.4176e-07
-6.87458e-06
1.3658e-07
-7.00606e-06
1.31418e-07
-7.1324e-06
1.26292e-07
-7.25367e-06
1.21206e-07
-7.36989e-06
1.16174e-07
-7.48115e-06
1.11196e-07
-7.58749e-06
1.06282e-07
-7.689e-06
1.0143e-07
-7.78571e-06
9.66452e-08
-7.87773e-06
9.19232e-08
-7.96506e-06
8.7267e-08
-8.04782e-06
8.26669e-08
-8.12602e-06
7.81254e-08
-8.19975e-06
7.36325e-08
-8.26901e-06
6.91897e-08
-8.3339e-06
6.47843e-08
-8.3944e-06
6.04193e-08
-8.45058e-06
5.60824e-08
-8.50243e-06
5.17743e-08
-8.54998e-06
4.74747e-08
-8.5932e-06
4.3178e-08
-8.63209e-06
3.88554e-08
-8.66664e-06
3.44819e-08
-8.69677e-06
3.00186e-08
-8.72233e-06
2.54295e-08
-8.74314e-06
2.06758e-08
-8.75904e-06
1.57445e-08
-8.76986e-06
1.06543e-08
-8.77558e-06
5.54994e-09
-8.77652e-06
7.58552e-10
-8.77318e-06
-3.52488e-09
-8.7659e-06
-7.48967e-09
-8.75476e-06
-1.13689e-08
-8.73975e-06
-1.52633e-08
-8.72083e-06
-1.91951e-08
-8.69794e-06
-2.31968e-08
-8.67095e-06
-2.7261e-08
-8.63981e-06
-3.14247e-08
-8.60435e-06
-3.56773e-08
-8.56449e-06
-4.00661e-08
-8.52005e-06
-4.45833e-08
-8.47092e-06
-4.92833e-08
-8.41684e-06
-5.4161e-08
-8.35766e-06
-5.92766e-08
-8.29307e-06
-6.46282e-08
-8.22285e-06
-7.02808e-08
-8.14661e-06
-7.6235e-08
-8.06407e-06
-8.25579e-08
-7.97479e-06
-8.92499e-08
-7.87838e-06
-9.63751e-08
-7.77437e-06
-1.03934e-07
-7.66234e-06
-1.11983e-07
-7.54179e-06
-1.20517e-07
-7.41226e-06
-1.29567e-07
-7.27317e-06
-1.391e-07
-7.12408e-06
-1.49127e-07
-6.96445e-06
-1.59579e-07
-6.79394e-06
-1.70445e-07
-6.61217e-06
-1.81627e-07
-6.41893e-06
-1.93073e-07
-6.21407e-06
-2.04646e-07
-5.99759e-06
-2.1625e-07
-5.76961e-06
-2.27716e-07
-5.53043e-06
-2.38906e-07
-5.2805e-06
-2.49631e-07
-5.02048e-06
-2.59723e-07
-4.7512e-06
-2.68994e-07
-4.47364e-06
-2.77271e-07
-4.18899e-06
-2.84393e-07
-3.89854e-06
-2.90213e-07
-3.60375e-06
-2.94615e-07
-3.30611e-06
-2.97502e-07
-3.00719e-06
-2.98826e-07
-2.70855e-06
-2.98588e-07
-2.41167e-06
-2.96832e-07
-2.118e-06
-2.93651e-07
-1.82882e-06
-2.89177e-07
-1.54523e-06
-2.83593e-07
-1.26812e-06
-2.77109e-07
-9.98205e-07
-2.69929e-07
-7.35902e-07
-2.62312e-07
-4.81337e-07
-2.54576e-07
-2.33439e-07
-2.47905e-07
9.49808e-09
-2.42943e-07
2.4624e-07
-2.36748e-07
4.7343e-07
-2.27194e-07
6.89258e-07
-2.15836e-07
8.93296e-07
-2.04048e-07
1.08557e-06
-1.92284e-07
1.26629e-06
-1.80743e-07
1.4358e-06
-1.69532e-07
1.59449e-06
-1.58704e-07
1.74275e-06
-1.48293e-07
1.88103e-06
-1.38309e-07
2.00976e-06
-1.28756e-07
2.12935e-06
-1.19625e-07
2.24022e-06
-1.10904e-07
2.34275e-06
-1.02569e-07
2.43731e-06
-9.45995e-08
2.52424e-06
-8.69605e-08
2.60382e-06
-7.96182e-08
2.67631e-06
-7.25224e-08
2.74189e-06
-6.56174e-08
2.80068e-06
-5.88198e-08
2.85267e-06
-5.20207e-08
2.89767e-06
-4.5042e-08
2.93523e-06
-3.75972e-08
2.96428e-06
-2.90916e-08
2.9821e-06
-1.78679e-08
2.98028e-06
1.76168e-09
2.93627e-06
4.39534e-08
1.16039e-07
2.82021e-06
1.29285e-08
-2.61921e-08
2.50157e-08
-2.59521e-08
3.69072e-08
-2.53253e-08
4.82754e-08
-2.4182e-08
5.88322e-08
-2.25243e-08
6.83058e-08
-2.03597e-08
7.64553e-08
-1.77061e-08
8.30339e-08
-1.45861e-08
8.78269e-08
-1.10251e-08
9.06132e-08
-7.04993e-09
9.1207e-08
-2.68886e-09
8.94076e-08
2.03187e-09
8.50394e-08
7.09142e-09
7.78974e-08
1.2474e-08
6.78056e-08
1.81697e-08
5.45531e-08
2.41786e-08
3.79501e-08
3.05114e-08
1.77573e-08
3.71911e-08
-6.25473e-09
4.42518e-08
-3.4378e-08
5.17386e-08
-6.69026e-08
5.97086e-08
-1.04194e-07
6.82276e-08
-1.46627e-07
7.73657e-08
-1.9466e-07
8.7199e-08
-2.48764e-07
9.78045e-08
-3.09486e-07
1.09257e-07
-3.77384e-07
1.21622e-07
-4.53068e-07
1.34955e-07
-5.37141e-07
1.49291e-07
-6.30222e-07
1.64642e-07
-7.32876e-07
1.80987e-07
-8.45635e-07
1.98269e-07
-9.68917e-07
2.16385e-07
-1.10304e-06
2.35186e-07
-1.24813e-06
2.54471e-07
-1.40419e-06
2.73993e-07
-1.57095e-06
2.93462e-07
-1.74799e-06
3.12563e-07
-1.93464e-06
3.30965e-07
-2.13006e-06
3.48342e-07
-2.33324e-06
3.6439e-07
-2.54303e-06
3.78841e-07
-2.75819e-06
3.91478e-07
-2.97744e-06
4.02142e-07
-3.19948e-06
4.10733e-07
-3.42304e-06
4.17214e-07
-3.64692e-06
4.21602e-07
-3.87002e-06
4.23964e-07
-4.0913e-06
4.24406e-07
-4.30987e-06
4.23063e-07
-4.52496e-06
4.20092e-07
-4.73591e-06
4.15662e-07
-4.94215e-06
4.09945e-07
-5.14326e-06
4.03112e-07
-5.33887e-06
3.95326e-07
-5.52873e-06
3.86742e-07
-5.71265e-06
3.775e-07
-5.89049e-06
3.6773e-07
-6.06219e-06
3.57544e-07
-6.22772e-06
3.47042e-07
-6.38708e-06
3.36313e-07
-6.5403e-06
3.25429e-07
-6.68744e-06
3.14456e-07
-6.82859e-06
3.03447e-07
-6.96382e-06
2.92447e-07
-7.09325e-06
2.81492e-07
-7.21697e-06
2.70614e-07
-7.33511e-06
2.59837e-07
-7.44776e-06
2.49182e-07
-7.55506e-06
2.38665e-07
-7.65712e-06
2.28296e-07
-7.75405e-06
2.18086e-07
-7.84596e-06
2.08039e-07
-7.93298e-06
1.98159e-07
-8.0152e-06
1.88446e-07
-8.09274e-06
1.78901e-07
-8.16568e-06
1.6952e-07
-8.23413e-06
1.603e-07
-8.29817e-06
1.51233e-07
-8.35789e-06
1.42312e-07
-8.41337e-06
1.33529e-07
-8.46469e-06
1.24875e-07
-8.51191e-06
1.16339e-07
-8.55513e-06
1.07912e-07
-8.59438e-06
9.95849e-08
-8.62973e-06
9.13475e-08
-8.66123e-06
8.31905e-08
-8.68892e-06
7.51048e-08
-8.71287e-06
6.70807e-08
-8.73316e-06
5.91111e-08
-8.74994e-06
5.11866e-08
-8.76334e-06
4.3307e-08
-8.77352e-06
3.54759e-08
-8.78068e-06
2.77005e-08
-8.78509e-06
1.99933e-08
-8.78696e-06
1.23687e-08
-8.78641e-06
4.8248e-09
-8.78312e-06
-2.71097e-09
-8.77652e-06
-1.03259e-08
-8.76621e-06
-1.80108e-08
-8.75207e-06
-2.5744e-08
-8.73404e-06
-3.35522e-08
-8.71206e-06
-4.14611e-08
-8.68605e-06
-4.94995e-08
-8.65592e-06
-5.76826e-08
-8.62156e-06
-6.60458e-08
-8.58286e-06
-7.46095e-08
-8.53969e-06
-8.3424e-08
-8.49191e-06
-9.25173e-08
-8.43937e-06
-1.01952e-07
-8.38187e-06
-1.11762e-07
-8.3192e-06
-1.22022e-07
-8.25111e-06
-1.32772e-07
-8.17733e-06
-1.44097e-07
-8.09754e-06
-1.56042e-07
-8.0114e-06
-1.68697e-07
-7.91852e-06
-1.82109e-07
-7.81849e-06
-1.96356e-07
-7.71087e-06
-2.11491e-07
-7.59521e-06
-2.27588e-07
-7.47105e-06
-2.44669e-07
-7.33788e-06
-2.62772e-07
-7.19515e-06
-2.81861e-07
-7.04237e-06
-3.01924e-07
-6.87904e-06
-3.22872e-07
-6.70477e-06
-3.44643e-07
-6.51919e-06
-3.67078e-07
-6.32206e-06
-3.90039e-07
-6.11322e-06
-4.13284e-07
-5.89265e-06
-4.3659e-07
-5.66048e-06
-4.59638e-07
-5.41699e-06
-4.82126e-07
-5.16266e-06
-5.03683e-07
-4.89815e-06
-5.23956e-07
-4.6243e-06
-5.42562e-07
-4.34216e-06
-5.59149e-07
-4.05294e-06
-5.73378e-07
-3.75798e-06
-5.84958e-07
-3.45879e-06
-5.93646e-07
-3.15691e-06
-5.99266e-07
-2.85393e-06
-6.01724e-07
-2.55144e-06
-6.01027e-07
-2.25095e-06
-5.97275e-07
-1.95392e-06
-5.90657e-07
-1.66164e-06
-5.81445e-07
-1.37524e-06
-5.69997e-07
-1.0956e-06
-5.56742e-07
-8.23468e-07
-5.42069e-07
-5.593e-07
-5.26482e-07
-3.02381e-07
-5.11502e-07
-5.18495e-08
-4.9844e-07
1.90445e-07
-4.85245e-07
4.22305e-07
-4.68613e-07
6.43373e-07
-4.48269e-07
8.53538e-07
-4.26009e-07
1.05259e-06
-4.03116e-07
1.24053e-06
-3.8023e-07
1.41748e-06
-3.57711e-07
1.58369e-06
-3.3576e-07
1.73947e-06
-3.14505e-07
1.88517e-06
-2.94015e-07
2.02116e-06
-2.7433e-07
2.14784e-06
-2.55459e-07
2.26558e-06
-2.37397e-07
2.37476e-06
-2.20119e-07
2.47575e-06
-2.03592e-07
2.56889e-06
-1.87768e-07
2.65448e-06
-1.72589e-07
2.73281e-06
-1.57982e-07
2.80412e-06
-1.43857e-07
2.86856e-06
-1.30096e-07
2.92625e-06
-1.16543e-07
2.97717e-06
-1.02972e-07
3.02114e-06
-8.90428e-08
3.05768e-06
-7.41774e-08
3.08588e-06
-5.7338e-08
3.10412e-06
-3.61505e-08
3.11201e-06
-6.18502e-09
3.10487e-06
5.10369e-08
1.50288e-07
3.0706e-06
1.05203e-08
-3.67449e-08
2.12733e-08
-3.67336e-08
3.16174e-08
-3.56966e-08
4.13123e-08
-3.39081e-08
5.01067e-08
-3.13476e-08
5.77368e-08
-2.80236e-08
6.39613e-08
-2.39617e-08
6.85312e-08
-1.91929e-08
7.12237e-08
-1.37506e-08
7.18034e-08
-7.66945e-09
7.0063e-08
-9.83288e-10
6.57743e-08
6.27881e-09
5.87353e-08
1.40952e-08
4.87144e-08
2.24528e-08
3.54991e-08
3.13505e-08
1.88336e-08
4.08028e-08
-1.5293e-09
5.08418e-08
-2.58954e-08
6.15178e-08
-5.45722e-08
7.28985e-08
-8.79374e-08
8.50668e-08
-1.2638e-07
9.81225e-08
-1.70367e-07
1.12179e-07
-2.20386e-07
1.27357e-07
-2.77005e-07
1.43782e-07
-3.40806e-07
1.61576e-07
-4.12431e-07
1.80845e-07
-4.92514e-07
2.01674e-07
-5.81711e-07
2.24114e-07
-6.80622e-07
2.48168e-07
-7.89799e-07
2.7378e-07
-9.09672e-07
3.00826e-07
-1.04054e-06
3.29102e-07
-1.18252e-06
3.58326e-07
-1.33551e-06
3.88132e-07
-1.49916e-06
4.18088e-07
-1.67291e-06
4.47704e-07
-1.85594e-06
4.76464e-07
-2.04727e-06
5.03847e-07
-2.2457e-06
5.29358e-07
-2.44995e-06
5.52554e-07
-2.65866e-06
5.73068e-07
-2.87048e-06
5.9062e-07
-3.08406e-06
6.0503e-07
-3.29817e-06
6.16214e-07
-3.51165e-06
6.2418e-07
-3.72348e-06
6.29016e-07
-3.93279e-06
6.30876e-07
-4.13882e-06
6.29967e-07
-4.34097e-06
6.26527e-07
-4.53876e-06
6.20818e-07
-4.73181e-06
6.13107e-07
-4.91984e-06
6.03661e-07
-5.10267e-06
5.92735e-07
-5.28017e-06
5.80565e-07
-5.45225e-06
5.67372e-07
-5.61891e-06
5.53352e-07
-5.78014e-06
5.3868e-07
-5.93597e-06
5.23507e-07
-6.08645e-06
5.07967e-07
-6.23164e-06
4.92173e-07
-6.37161e-06
4.7622e-07
-6.50643e-06
4.60188e-07
-6.63618e-06
4.44146e-07
-6.76094e-06
4.28148e-07
-6.8808e-06
4.12242e-07
-6.99583e-06
3.96465e-07
-7.10612e-06
3.80846e-07
-7.21175e-06
3.65409e-07
-7.3128e-06
3.50173e-07
-7.40934e-06
3.35153e-07
-7.50145e-06
3.20358e-07
-7.58921e-06
3.05796e-07
-7.67269e-06
2.91469e-07
-7.75196e-06
2.77381e-07
-7.8271e-06
2.6353e-07
-7.89817e-06
2.49915e-07
-7.96525e-06
2.3653e-07
-8.02838e-06
2.23371e-07
-8.08765e-06
2.10429e-07
-8.1431e-06
1.97696e-07
-8.19481e-06
1.85162e-07
-8.24282e-06
1.72816e-07
-8.2872e-06
1.60645e-07
-8.32801e-06
1.48636e-07
-8.36529e-06
1.36778e-07
-8.39908e-06
1.25057e-07
-8.42943e-06
1.13462e-07
-8.45637e-06
1.01977e-07
-8.47992e-06
9.05916e-08
-8.50015e-06
7.9289e-08
-8.5171e-06
6.80589e-08
-8.5308e-06
5.68896e-08
-8.54123e-06
4.57692e-08
-8.54837e-06
3.46872e-08
-8.55216e-06
2.36271e-08
-8.55253e-06
1.25702e-08
-8.54937e-06
1.48542e-09
-8.5426e-06
-9.6802e-09
-8.53217e-06
-2.09646e-08
-8.51803e-06
-3.23658e-08
-8.50014e-06
-4.38902e-08
-8.47842e-06
-5.55491e-08
-8.45282e-06
-6.73775e-08
-8.42322e-06
-7.93899e-08
-8.38958e-06
-9.16333e-08
-8.35175e-06
-1.04128e-07
-8.30966e-06
-1.1694e-07
-8.26316e-06
-1.30104e-07
-8.21214e-06
-1.43702e-07
-8.15642e-06
-1.57783e-07
-8.09585e-06
-1.72442e-07
-8.0302e-06
-1.87741e-07
-7.95925e-06
-2.03788e-07
-7.88271e-06
-2.2066e-07
-7.8003e-06
-2.38474e-07
-7.71167e-06
-2.57315e-07
-7.61646e-06
-2.77296e-07
-7.51424e-06
-2.98504e-07
-7.40463e-06
-3.21051e-07
-7.28715e-06
-3.45015e-07
-7.16137e-06
-3.70466e-07
-7.02675e-06
-3.97418e-07
-6.8828e-06
-4.25868e-07
-6.72897e-06
-4.55753e-07
-6.56482e-06
-4.86999e-07
-6.3899e-06
-5.1946e-07
-6.2039e-06
-5.52959e-07
-6.00652e-06
-5.87235e-07
-5.79762e-06
-6.21979e-07
-5.57717e-06
-6.56804e-07
-5.34528e-06
-6.91274e-07
-5.10224e-06
-7.24892e-07
-4.84851e-06
-7.57124e-07
-4.58477e-06
-7.8741e-07
-4.31188e-06
-8.15179e-07
-4.03087e-06
-8.39885e-07
-3.74299e-06
-8.61016e-07
-3.44961e-06
-8.78125e-07
-3.15225e-06
-8.90849e-07
-2.85246e-06
-8.98927e-07
-2.55184e-06
-9.02241e-07
-2.25198e-06
-9.00799e-07
-1.95439e-06
-8.9479e-07
-1.66048e-06
-8.84495e-07
-1.37148e-06
-8.70377e-07
-1.08847e-06
-8.52941e-07
-8.12151e-07
-8.33002e-07
-5.43131e-07
-8.11023e-07
-2.80811e-07
-7.88743e-07
-2.4306e-08
-7.67945e-07
2.23915e-07
-7.46611e-07
4.60704e-07
-7.21985e-07
6.85635e-07
-6.93507e-07
8.9935e-07
-6.61949e-07
1.10205e-06
-6.28685e-07
1.29378e-06
-5.94827e-07
1.47465e-06
-5.61081e-07
1.64484e-06
-5.27886e-07
1.80461e-06
-4.95523e-07
1.95427e-06
-4.64166e-07
2.09418e-06
-4.33922e-07
2.22469e-06
-4.04844e-07
2.34618e-06
-3.76956e-07
2.45902e-06
-3.50244e-07
2.56357e-06
-3.24681e-07
2.66018e-06
-3.00213e-07
2.74917e-06
-2.76775e-07
2.83085e-06
-2.5428e-07
2.90547e-06
-2.32622e-07
2.97327e-06
-2.11666e-07
3.0344e-06
-1.91243e-07
3.08896e-06
-1.71121e-07
3.13695e-06
-1.50974e-07
3.17821e-06
-1.30316e-07
3.21235e-06
-1.08343e-07
3.23868e-06
-8.36932e-08
3.25603e-06
-5.35312e-08
3.26318e-06
-1.33662e-08
3.26196e-06
5.22315e-08
1.56565e-07
3.25568e-06
8.35218e-09
-4.51293e-08
1.65385e-08
-4.49483e-08
2.43112e-08
-4.34967e-08
3.13987e-08
-4.10269e-08
3.75408e-08
-3.75194e-08
4.2469e-08
-3.29863e-08
4.59352e-08
-2.74598e-08
4.76816e-08
-2.09772e-08
4.74746e-08
-1.35779e-08
4.50652e-08
-5.30098e-09
4.02278e-08
3.81806e-09
3.27121e-08
1.37519e-08
2.22873e-08
2.44838e-08
8.68676e-09
3.60105e-08
-8.34445e-09
4.83468e-08
-2.91118e-08
6.15289e-08
-5.39176e-08
7.5615e-08
-8.31252e-08
9.0687e-08
-1.17106e-07
1.0685e-07
-1.56306e-07
1.24231e-07
-2.01186e-07
1.42975e-07
-2.52284e-07
1.63242e-07
-3.10148e-07
1.85194e-07
-3.75389e-07
2.0899e-07
-4.48613e-07
2.34771e-07
-5.30446e-07
2.62643e-07
-6.21464e-07
2.92663e-07
-7.22204e-07
3.24818e-07
-8.33081e-07
3.59013e-07
-9.5439e-07
3.95051e-07
-1.08623e-06
4.32627e-07
-1.22849e-06
4.71324e-07
-1.38081e-06
5.10621e-07
-1.54263e-06
5.49908e-07
-1.71309e-06
5.88517e-07
-1.89118e-06
6.25755e-07
-2.0757e-06
6.60943e-07
-2.26534e-06
6.93454e-07
-2.45877e-06
7.22747e-07
-2.65464e-06
7.48391e-07
-2.8517e-06
7.70084e-07
-3.04877e-06
7.87654e-07
-3.24482e-06
8.01055e-07
-3.439e-06
8.10353e-07
-3.63056e-06
8.15712e-07
-3.81895e-06
8.1737e-07
-4.00371e-06
8.15618e-07
-4.18456e-06
8.10779e-07
-4.36125e-06
8.03194e-07
-4.53367e-06
7.93201e-07
-4.70172e-06
7.81132e-07
-4.86538e-06
7.67294e-07
-5.02466e-06
7.51973e-07
-5.17956e-06
7.35428e-07
-5.33011e-06
7.17888e-07
-5.47636e-06
6.99555e-07
-5.61833e-06
6.80604e-07
-5.75606e-06
6.61187e-07
-5.88958e-06
6.41434e-07
-6.01892e-06
6.21455e-07
-6.14411e-06
6.01344e-07
-6.26516e-06
5.81179e-07
-6.3821e-06
5.61025e-07
-6.49495e-06
5.40939e-07
-6.60374e-06
5.20966e-07
-6.70848e-06
5.01145e-07
-6.8092e-06
4.81507e-07
-6.90593e-06
4.62078e-07
-6.99869e-06
4.42878e-07
-7.08752e-06
4.23924e-07
-7.17244e-06
4.05227e-07
-7.25348e-06
3.86796e-07
-7.3307e-06
3.68636e-07
-7.40411e-06
3.50749e-07
-7.47377e-06
3.33137e-07
-7.53971e-06
3.15797e-07
-7.60196e-06
2.98725e-07
-7.66057e-06
2.81916e-07
-7.71557e-06
2.65362e-07
-7.76699e-06
2.49053e-07
-7.81487e-06
2.32978e-07
-7.85925e-06
2.17123e-07
-7.90015e-06
2.01476e-07
-7.93762e-06
1.86021e-07
-7.97166e-06
1.70741e-07
-8.00231e-06
1.55621e-07
-8.02958e-06
1.40643e-07
-8.05346e-06
1.25791e-07
-8.07396e-06
1.11042e-07
-8.0911e-06
9.63793e-08
-8.1049e-06
8.17769e-08
-8.11535e-06
6.72209e-08
-8.12241e-06
5.26891e-08
-8.12604e-06
3.81639e-08
-8.1262e-06
2.36214e-08
-8.12285e-06
9.04379e-09
-8.11596e-06
-5.59844e-09
-8.1055e-06
-2.03408e-08
-8.09146e-06
-3.52155e-08
-8.07383e-06
-5.02364e-08
-8.05256e-06
-6.54298e-08
-8.0276e-06
-8.08106e-08
-7.99888e-06
-9.64176e-08
-7.96633e-06
-1.12268e-07
-7.92984e-06
-1.28418e-07
-7.88934e-06
-1.44899e-07
-7.84471e-06
-1.61792e-07
-7.79586e-06
-1.79146e-07
-7.74265e-06
-1.97065e-07
-7.68495e-06
-2.15612e-07
-7.62258e-06
-2.34911e-07
-7.55535e-06
-2.55043e-07