/*--------------------------------*- C++ -*----------------------------------*\
| =========                 |                                                 |
| \\      /  F ield         | OpenFOAM: The Open Source CFD Toolbox           |
|  \\    /   O peration     | Version:  2406                                  |
|   \\  /    A nd           | Website:  www.openfoam.com                      |
|    \\/     M anipulation  |                                                 |
\*---------------------------------------------------------------------------*/
FoamFile
{
    version     2.0;
    format      ascii;
    arch        "LSB;label=32;scalar=64";
    class       volVectorField;
    location    "100";
    object      U;
}
// * * * * * * * * * * * * * * * * * * * * * * * * * * * * * * * * * * * * * //

dimensions      [0 1 -1 0 0 0 0];

internalField   nonuniform List<vector> 
150000
(
(7.94097 0.953535 0)
(6.69755 1.02914 0)
(5.17762 0.578407 0)
(3.9024 0.294348 0)
(3.1118 0.166078 0)
(2.60385 0.0998538 0)
(2.2479 0.0624116 0)
(1.98892 0.041394 0)
(1.79428 0.0292927 0)
(1.64254 0.0218876 0)
(1.52046 0.0170714 0)
(1.41977 0.0137696 0)
(1.3351 0.0113979 0)
(1.26273 0.00962483 0)
(1.20007 0.00825558 0)
(1.14523 0.00717035 0)
(1.09679 0.00629208 0)
(1.05367 0.00556906 0)
(1.01503 0.00496533 0)
(0.980203 0.00445511 0)
(0.948647 0.00401942 0)
(0.919927 0.00364398 0)
(0.893682 0.00331785 0)
(0.869612 0.00303249 0)
(0.847464 0.00278121 0)
(0.827027 0.0025586 0)
(0.808116 0.00236035 0)
(0.790578 0.00218291 0)
(0.774276 0.00202338 0)
(0.759095 0.00187932 0)
(0.744932 0.00174875 0)
(0.731697 0.00162994 0)
(0.719311 0.00152149 0)
(0.707706 0.00142215 0)
(0.696818 0.00133088 0)
(0.686594 0.00124679 0)
(0.676983 0.00116909 0)
(0.667941 0.00109711 0)
(0.65943 0.00103025 0)
(0.651412 0.000968005 0)
(0.643855 0.000909915 0)
(0.636732 0.000855569 0)
(0.630014 0.000804623 0)
(0.623677 0.000756745 0)
(0.617701 0.000711667 0)
(0.612064 0.000669117 0)
(0.606749 0.000628884 0)
(0.601738 0.000590742 0)
(0.597018 0.000554523 0)
(0.592573 0.000520038 0)
(0.588391 0.000487149 0)
(0.584461 0.000455694 0)
(0.580772 0.000425563 0)
(0.577314 0.000396612 0)
(0.574078 0.000368752 0)
(0.571057 0.000341853 0)
(0.568243 0.000315842 0)
(0.565629 0.000290599 0)
(0.56321 0.000266063 0)
(0.560981 0.000242121 0)
(0.558936 0.000218722 0)
(0.557072 0.000195756 0)
(0.555386 0.000173176 0)
(0.553874 0.000150875 0)
(0.552534 0.00012881 0)
(0.551364 0.00010687 0)
(0.550363 8.50121e-05 0)
(0.54953 6.31205e-05 0)
(0.548865 4.11476e-05 0)
(0.548369 1.89696e-05 0)
(0.548042 -3.46907e-06 0)
(0.547886 -2.63066e-05 0)
(0.547904 -4.96152e-05 0)
(0.5481 -7.35574e-05 0)
(0.548476 -9.82313e-05 0)
(0.549038 -0.000123835 0)
(0.549793 -0.000150505 0)
(0.550747 -0.000178493 0)
(0.55191 -0.000207999 0)
(0.553292 -0.000239353 0)
(0.554906 -0.00027285 0)
(0.556766 -0.000308953 0)
(0.558892 -0.000348113 0)
(0.561303 -0.000391008 0)
(0.564027 -0.000438373 0)
(0.567095 -0.000491282 0)
(0.570547 -0.000551059 0)
(0.574434 -0.000619717 0)
(0.578821 -0.000700241 0)
(0.583797 -0.000797825 0)
(0.589486 -0.000922061 0)
(0.596077 -0.00109242 0)
(0.603872 -0.00135019 0)
(0.613402 -0.0017884 0)
(0.62565 -0.00263 0)
(0.642461 -0.00440884 0)
(0.667394 -0.0083438 0)
(0.709186 -0.0181045 0)
(0.793274 -0.0528587 0)
(0.924864 -0.197209 0)
(10.2186 1.88707 0)
(10.3827 2.72482 0)
(9.62192 2.24091 0)
(8.49602 1.62013 0)
(7.47742 1.14034 0)
(6.64317 0.807779 0)
(5.96435 0.586219 0)
(5.41389 0.439353 0)
(4.96618 0.340206 0)
(4.59772 0.271291 0)
(4.29006 0.221816 0)
(4.02962 0.185162 0)
(3.80639 0.157219 0)
(3.61289 0.135379 0)
(3.44352 0.117939 0)
(3.29398 0.103757 0)
(3.16095 0.0920442 0)
(3.04183 0.0822408 0)
(2.93453 0.0739403 0)
(2.83739 0.0668411 0)
(2.74902 0.0607149 0)
(2.66832 0.0553862 0)
(2.59434 0.0507181 0)
(2.5263 0.0466024 0)
(2.46353 0.0429523 0)
(2.40546 0.039698 0)
(2.35162 0.0367821 0)
(2.30158 0.0341577 0)
(2.25497 0.0317858 0)
(2.21149 0.0296336 0)
(2.17086 0.0276737 0)
(2.13283 0.0258829 0)
(2.09718 0.0242413 0)
(2.06372 0.0227319 0)
(2.03229 0.0213401 0)
(2.00274 0.0200533 0)
(1.97491 0.0188605 0)
(1.9487 0.017752 0)
(1.92399 0.0167195 0)
(1.90069 0.0157555 0)
(1.87869 0.0148535 0)
(1.85793 0.0140076 0)
(1.83832 0.0132127 0)
(1.8198 0.0124643 0)
(1.80231 0.011758 0)
(1.78579 0.0110903 0)
(1.77019 0.0104577 0)
(1.75546 0.00985723 0)
(1.74155 0.00928611 0)
(1.72844 0.00874182 0)
(1.71608 0.00822205 0)
(1.70444 0.00772469 0)
(1.69349 0.00724779 0)
(1.68321 0.00678954 0)
(1.67356 0.00634827 0)
(1.66452 0.00592241 0)
(1.65608 0.0055105 0)
(1.64821 0.00511115 0)
(1.6409 0.00472305 0)
(1.63413 0.00434495 0)
(1.62789 0.00397565 0)
(1.62216 0.00361399 0)
(1.61694 0.00325883 0)
(1.61222 0.00290907 0)
(1.60799 0.00256361 0)
(1.60424 0.00222133 0)
(1.60096 0.00188113 0)
(1.59817 0.00154187 0)
(1.59585 0.00120238 0)
(1.594 0.000861424 0)
(1.59264 0.000517718 0)
(1.59175 0.000169869 0)
(1.59135 -0.000183604 0)
(1.59145 -0.000544368 0)
(1.59205 -0.00091425 0)
(1.59316 -0.00129534 0)
(1.59482 -0.00168999 0)
(1.59702 -0.00210093 0)
(1.5998 -0.00253131 0)
(1.60318 -0.00298486 0)
(1.60719 -0.00346603 0)
(1.61188 -0.00398023 0)
(1.61728 -0.00453404 0)
(1.62346 -0.00513577 0)
(1.63049 -0.00579597 0)
(1.63844 -0.00652849 0)
(1.64742 -0.00735196 0)
(1.65756 -0.00829258 0)
(1.66904 -0.00938881 0)
(1.68207 -0.0107005 0)
(1.69698 -0.0123258 0)
(1.7142 -0.0144359 0)
(1.73439 -0.0173433 0)
(1.75858 -0.021642 0)
(1.78837 -0.0284985 0)
(1.82635 -0.0402383 0)
(1.87671 -0.0614564 0)
(1.94684 -0.101285 0)
(2.04742 -0.179241 0)
(2.16149 -0.335083 0)
(10.1768 1.34543 0)
(10.7883 2.53771 0)
(10.9415 2.66427 0)
(10.6001 2.36693 0)
(10.0109 1.96062 0)
(9.3502 1.57529 0)
(8.70223 1.25744 0)
(8.10619 1.01085 0)
(7.57555 0.82333 0)
(7.10945 0.680703 0)
(6.70137 0.57118 0)
(6.34352 0.485887 0)
(6.02846 0.418414 0)
(5.74965 0.364198 0)
(5.50156 0.319989 0)
(5.27961 0.283453 0)
(5.08001 0.252889 0)
(4.89965 0.227043 0)
(4.73594 0.204972 0)
(4.58675 0.185959 0)
(4.45028 0.169452 0)
(4.32501 0.155017 0)
(4.20966 0.142313 0)
(4.10316 0.131066 0)
(4.00456 0.121055 0)
(3.91306 0.1121 0)
(3.82797 0.104052 0)
(3.74868 0.0967899 0)
(3.67465 0.0902098 0)
(3.60543 0.0842259 0)
(3.5406 0.0787654 0)
(3.4798 0.0737665 0)
(3.42271 0.069176 0)
(3.36904 0.0649485 0)
(3.31853 0.0610446 0)
(3.27096 0.05743 0)
(3.2261 0.0540751 0)
(3.18379 0.0509537 0)
(3.14384 0.048043 0)
(3.10611 0.0453226 0)
(3.07045 0.0427748 0)
(3.03674 0.0403835 0)
(3.00487 0.0381346 0)
(2.97473 0.0360154 0)
(2.94622 0.0340145 0)
(2.91925 0.0321216 0)
(2.89375 0.0303274 0)
(2.86964 0.0286236 0)
(2.84685 0.0270024 0)
(2.82533 0.025457 0)
(2.80501 0.0239808 0)
(2.78584 0.0225681 0)
(2.76778 0.0212134 0)
(2.75077 0.0199117 0)
(2.73479 0.0186583 0)
(2.71979 0.0174489 0)
(2.70574 0.0162795 0)
(2.6926 0.0151461 0)
(2.68036 0.0140451 0)
(2.66899 0.0129731 0)
(2.65846 0.0119267 0)
(2.64876 0.0109027 0)
(2.63987 0.00989795 0)
(2.63176 0.00890945 0)
(2.62444 0.00793411 0)
(2.61789 0.00696893 0)
(2.61211 0.00601084 0)
(2.60707 0.00505674 0)
(2.6028 0.00410341 0)
(2.59928 0.00314755 0)
(2.59651 0.00218563 0)
(2.5945 0.00121394 0)
(2.59326 0.000228433 0)
(2.5928 -0.000775274 0)
(2.59313 -0.0018021 0)
(2.59427 -0.00285755 0)
(2.59625 -0.00394789 0)
(2.59908 -0.00508028 0)
(2.6028 -0.00626307 0)
(2.60746 -0.00750602 0)
(2.61309 -0.00882086 0)
(2.61975 -0.0102217 0)
(2.62751 -0.0117258 0)
(2.63645 -0.0133549 0)
(2.64667 -0.0151366 0)
(2.65828 -0.0171068 0)
(2.67143 -0.0193138 0)
(2.6863 -0.0218241 0)
(2.70314 -0.0247331 0)
(2.72223 -0.0281832 0)
(2.74399 -0.0323952 0)
(2.76897 -0.0377256 0)
(2.79789 -0.0447693 0)
(2.83181 -0.0545457 0)
(2.87213 -0.0688304 0)
(2.9207 -0.0907192 0)
(2.97972 -0.125494 0)
(3.05121 -0.181873 0)
(3.13398 -0.273449 0)
(3.20943 -0.414627 0)
(10.0798 0.823272 0)
(10.5966 1.94614 0)
(11.0633 2.45271 0)
(11.2352 2.5298 0)
(11.1201 2.36782 0)
(10.8139 2.10243 0)
(10.4029 1.81774 0)
(9.94886 1.555 0)
(9.49113 1.32834 0)
(9.05157 1.13884 0)
(8.64043 0.982452 0)
(8.26132 0.853752 0)
(7.91427 0.747507 0)
(7.59757 0.659256 0)
(7.30875 0.585389 0)
(7.04513 0.523055 0)
(6.80413 0.470024 0)
(6.58334 0.424551 0)
(6.3806 0.385269 0)
(6.19398 0.351099 0)
(6.0218 0.321183 0)
(5.86257 0.294836 0)
(5.715 0.271502 0)
(5.57794 0.250731 0)
(5.45039 0.232152 0)
(5.33148 0.215461 0)
(5.22043 0.200403 0)
(5.11656 0.186767 0)
(5.01925 0.174372 0)
(4.92796 0.163069 0)
(4.84222 0.152727 0)
(4.76158 0.143236 0)
(4.68568 0.134502 0)
(4.61415 0.126442 0)
(4.54668 0.118985 0)
(4.483 0.112069 0)
(4.42284 0.105639 0)
(4.36598 0.0996482 0)
(4.31221 0.0940539 0)
(4.26132 0.0888189 0)
(4.21316 0.08391 0)
(4.16755 0.0792979 0)
(4.12436 0.074956 0)
(4.08344 0.0708607 0)
(4.04469 0.0669907 0)
(4.00797 0.0633267 0)
(3.9732 0.0598515 0)
(3.94027 0.0565491 0)
(3.9091 0.0534051 0)
(3.8796 0.0504065 0)
(3.85171 0.0475411 0)
(3.82536 0.0447979 0)
(3.80048 0.0421665 0)
(3.77701 0.0396376 0)
(3.7549 0.0372022 0)
(3.73411 0.0348521 0)
(3.71459 0.0325795 0)
(3.69629 0.0303772 0)
(3.67919 0.0282383 0)
(3.66325 0.0261561 0)
(3.64844 0.0241243 0)
(3.63473 0.0221369 0)
(3.6221 0.0201879 0)
(3.61053 0.0182714 0)
(3.60001 0.0163818 0)
(3.59051 0.0145134 0)
(3.58202 0.0126603 0)
(3.57454 0.0108168 0)
(3.56807 0.00897681 0)
(3.5626 0.00713414 0)
(3.55812 0.00528224 0)
(3.55465 0.00341417 0)
(3.5522 0.00152248 0)
(3.55077 -0.000400973 0)
(3.55037 -0.00236516 0)
(3.55105 -0.00438017 0)
(3.5528 -0.00645742 0)
(3.55568 -0.00860995 0)
(3.55971 -0.0108528 0)
(3.56494 -0.0132038 0)
(3.57144 -0.0156837 0)
(3.57925 -0.0183179 0)
(3.58846 -0.0211373 0)
(3.59917 -0.0241803 0)
(3.61147 -0.0274954 0)
(3.62552 -0.0311454 0)
(3.64148 -0.0352132 0)
(3.65954 -0.0398113 0)
(3.67996 -0.0450966 0)
(3.70305 -0.0512946 0)
(3.72921 -0.0587393 0)
(3.75895 -0.0679384 0)
(3.79288 -0.0796802 0)
(3.83176 -0.0952061 0)
(3.87643 -0.116474 0)
(3.92763 -0.146522 0)
(3.98558 -0.189863 0)
(4.04896 -0.252636 0)
(4.11273 -0.341666 0)
(4.16336 -0.459015 0)
(10.0426 0.546163 0)
(10.3951 1.45823 0)
(10.8537 2.05088 0)
(11.215 2.33652 0)
(11.3922 2.39187 0)
(11.3913 2.29901 0)
(11.2502 2.1273 0)
(11.0122 1.92545 0)
(10.7157 1.72233 0)
(10.39 1.53262 0)
(10.055 1.36236 0)
(9.72345 1.21278 0)
(9.40304 1.08276 0)
(9.09783 0.970231 0)
(8.80974 0.872864 0)
(8.53931 0.78845 0)
(8.28628 0.715018 0)
(8.04992 0.650876 0)
(7.82928 0.594599 0)
(7.62333 0.544996 0)
(7.43099 0.501074 0)
(7.25124 0.462011 0)
(7.08311 0.427119 0)
(6.92568 0.395826 0)
(6.77812 0.367651 0)
(6.63966 0.342189 0)
(6.5096 0.319098 0)
(6.3873 0.298087 0)
(6.27218 0.278908 0)
(6.16372 0.26135 0)
(6.06144 0.245229 0)
(5.9649 0.230387 0)
(5.87371 0.216688 0)
(5.78751 0.204012 0)
(5.70597 0.192256 0)
(5.62878 0.181327 0)
(5.55569 0.171145 0)
(5.48642 0.16164 0)
(5.42077 0.152748 0)
(5.3585 0.144412 0)
(5.29944 0.136584 0)
(5.24341 0.129219 0)
(5.19023 0.122276 0)
(5.13977 0.115719 0)
(5.09187 0.109515 0)
(5.04642 0.103636 0)
(5.00329 0.0980538 0)
(4.96237 0.0927448 0)
(4.92358 0.0876864 0)
(4.8868 0.0828583 0)
(4.85196 0.0782417 0)
(4.81897 0.0738194 0)
(4.78777 0.0695753 0)
(4.75828 0.0654947 0)
(4.73044 0.0615637 0)
(4.7042 0.0577694 0)
(4.67951 0.0540996 0)
(4.6563 0.050543 0)
(4.63455 0.0470886 0)
(4.61422 0.043726 0)
(4.59525 0.0404454 0)
(4.57763 0.0372372 0)
(4.56133 0.034092 0)
(4.54631 0.0310008 0)
(4.53257 0.0279545 0)
(4.52007 0.0249442 0)
(4.50881 0.0219609 0)
(4.49877 0.0189955 0)
(4.48995 0.0160386 0)
(4.48234 0.0130805 0)
(4.47594 0.0101112 0)
(4.47075 0.00711996 0)
(4.46679 0.0040952 0)
(4.46406 0.00102451 0)
(4.46258 -0.00210578 0)
(4.46236 -0.00531096 0)
(4.46345 -0.00860827 0)
(4.46586 -0.0120174 0)
(4.46964 -0.0155608 0)
(4.47485 -0.0192649 0)
(4.48152 -0.0231608 0)
(4.48974 -0.0272856 0)
(4.49959 -0.0316846 0)
(4.51115 -0.0364133 0)
(4.52455 -0.0415414 0)
(4.53992 -0.0471577 0)
(4.55742 -0.0533775 0)
(4.57724 -0.060354 0)
(4.59962 -0.0682945 0)
(4.62483 -0.0774866 0)
(4.6532 -0.0883371 0)
(4.6851 -0.101431 0)
(4.72095 -0.117621 0)
(4.76113 -0.138148 0)
(4.80591 -0.164808 0)
(4.85517 -0.200105 0)
(4.90796 -0.247305 0)
(4.96174 -0.310069 0)
(5.01137 -0.391098 0)
(5.04805 -0.488535 0)
(10.0236 0.385275 0)
(10.2538 1.09591 0)
(10.6179 1.64852 0)
(10.9922 2.00995 0)
(11.2859 2.1975 0)
(11.4645 2.2469 0)
(11.526 2.19893 0)
(11.485 2.09082 0)
(11.3637 1.95131 0)
(11.1849 1.80005 0)
(10.9681 1.64929 0)
(10.7288 1.50594 0)
(10.4785 1.37335 0)
(10.2251 1.25275 0)
(9.97422 1.14408 0)
(9.7295 1.04668 0)
(9.49316 0.959558 0)
(9.26649 0.88167 0)
(9.05014 0.811968 0)
(8.84432 0.749486 0)
(8.64895 0.693351 0)
(8.46376 0.642792 0)
(8.28837 0.597131 0)
(8.12235 0.555781 0)
(7.96522 0.51823 0)
(7.8165 0.484034 0)
(7.67572 0.45281 0)
(7.54241 0.424224 0)
(7.41614 0.397987 0)
(7.29649 0.373845 0)
(7.18306 0.351578 0)
(7.07548 0.330993 0)
(6.97341 0.31192 0)
(6.87652 0.29421 0)
(6.78453 0.277732 0)
(6.69714 0.262368 0)
(6.61411 0.248015 0)
(6.53519 0.234582 0)
(6.46015 0.221986 0)
(6.3888 0.210153 0)
(6.32094 0.199017 0)
(6.25639 0.18852 0)
(6.19499 0.178607 0)
(6.13659 0.16923 0)
(6.08104 0.160346 0)
(6.0282 0.151914 0)
(5.97796 0.143898 0)
(5.9302 0.136265 0)
(5.88482 0.128985 0)
(5.84172 0.122029 0)
(5.8008 0.115371 0)
(5.76198 0.108988 0)
(5.72518 0.102859 0)
(5.69033 0.0969609 0)
(5.65736 0.0912762 0)
(5.62621 0.0857866 0)
(5.59682 0.0804751 0)
(5.56914 0.0753257 0)
(5.54312 0.0703233 0)
(5.51872 0.0654533 0)
(5.49589 0.0607018 0)
(5.4746 0.0560554 0)
(5.45482 0.0515011 0)
(5.43652 0.0470261 0)
(5.41968 0.0426177 0)
(5.40426 0.0382634 0)
(5.39027 0.0339508 0)
(5.37767 0.0296669 0)
(5.36647 0.0253989 0)
(5.35665 0.0211333 0)
(5.34822 0.0168559 0)
(5.34117 0.0125521 0)
(5.33552 0.00820601 0)
(5.33126 0.00380049 0)
(5.32842 -0.000683093 0)
(5.32701 -0.00526544 0)
(5.32707 -0.00996985 0)
(5.32862 -0.0148227 0)
(5.33171 -0.0198542 0)
(5.33637 -0.0250992 0)
(5.34268 -0.0305988 0)
(5.35068 -0.0364015 0)
(5.36046 -0.0425659 0)
(5.37211 -0.0491631 0)
(5.38573 -0.0562814 0)
(5.40145 -0.0640311 0)
(5.41942 -0.0725532 0)
(5.43978 -0.0820298 0)
(5.46274 -0.0927011 0)
(5.4885 -0.104887 0)
(5.51729 -0.119023 0)
(5.54933 -0.135699 0)
(5.58482 -0.155729 0)
(5.62383 -0.180214 0)
(5.6662 -0.210618 0)
(5.71132 -0.248793 0)
(5.75779 -0.296858 0)
(5.80298 -0.356745 0)
(5.84274 -0.429119 0)
(5.87154 -0.51139 0)
(10.0134 0.283715 0)
(10.1646 0.836492 0)
(10.4346 1.31328 0)
(10.7558 1.6772 0)
(11.0614 1.92259 0)
(11.3114 2.05978 0)
(11.4862 2.10756 0)
(11.5809 2.08811 0)
(11.6009 2.0225 0)
(11.5574 1.92817 0)
(11.4633 1.81835 0)
(11.331 1.7024 0)
(11.1715 1.58649 0)
(10.9937 1.47445 0)
(10.8047 1.36844 0)
(10.6099 1.26952 0)
(10.4133 1.17804 0)
(10.2179 1.09391 0)
(10.0256 1.01678 0)
(9.83802 0.946204 0)
(9.65605 0.881653 0)
(9.4803 0.822602 0)
(9.31113 0.76854 0)
(9.14868 0.718989 0)
(8.99298 0.673508 0)
(8.84394 0.631695 0)
(8.70144 0.59319 0)
(8.56527 0.557668 0)
(8.43524 0.524837 0)
(8.31111 0.494438 0)
(8.19263 0.46624 0)
(8.07958 0.440035 0)
(7.9717 0.41564 0)
(7.86877 0.392889 0)
(7.77057 0.371634 0)
(7.67686 0.351744 0)
(7.58745 0.333099 0)
(7.50213 0.315592 0)
(7.42073 0.299128 0)
(7.34305 0.283619 0)
(7.26893 0.268987 0)
(7.19822 0.25516 0)
(7.13075 0.242075 0)
(7.0664 0.229672 0)
(7.00503 0.217898 0)
(6.94651 0.206704 0)
(6.89072 0.196044 0)
(6.83757 0.185877 0)
(6.78694 0.176167 0)
(6.73874 0.166876 0)
(6.69288 0.157974 0)
(6.64927 0.14943 0)
(6.60784 0.141216 0)
(6.56851 0.133306 0)
(6.53122 0.125675 0)
(6.49591 0.1183 0)
(6.46251 0.111161 0)
(6.43097 0.104235 0)
(6.40124 0.0975045 0)
(6.37327 0.0909497 0)
(6.34703 0.0845529 0)
(6.32248 0.0782966 0)
(6.29958 0.0721641 0)
(6.2783 0.0661387 0)
(6.25862 0.0602041 0)
(6.24051 0.0543441 0)
(6.22396 0.0485424 0)
(6.20895 0.0427826 0)
(6.19546 0.0370478 0)
(6.18349 0.0313207 0)
(6.17304 0.0255832 0)
(6.16411 0.0198163 0)
(6.15669 0.0139999 0)
(6.15081 0.00811222 0)
(6.14646 0.00212952 0)
(6.14368 -0.00397418 0)
(6.14248 -0.010228 0)
(6.14289 -0.0166647 0)
(6.14495 -0.0233217 0)
(6.1487 -0.0302419 0)
(6.1542 -0.037475 0)
(6.16149 -0.0450798 0)
(6.17066 -0.0531259 0)
(6.18177 -0.0616972 0)
(6.19493 -0.0708959 0)
(6.21022 -0.080848 0)
(6.22777 -0.0917105 0)
(6.2477 -0.103682 0)
(6.27014 -0.117016 0)
(6.29524 -0.132038 0)
(6.3231 -0.149172 0)
(6.35383 -0.168967 0)
(6.38743 -0.192133 0)
(6.42376 -0.219573 0)
(6.46241 -0.252389 0)
(6.50256 -0.291847 0)
(6.54277 -0.339207 0)
(6.58079 -0.395339 0)
(6.61353 -0.460013 0)
(6.63754 -0.530882 0)
(10.0083 0.217811 0)
(10.1103 0.654055 0)
(10.3068 1.05381 0)
(10.5627 1.38775 0)
(10.8348 1.64434 0)
(11.091 1.82304 0)
(11.3092 1.93019 0)
(11.4764 1.97662 0)
(11.5877 1.97501 0)
(11.6444 1.93772 0)
(11.652 1.87564 0)
(11.6174 1.79765 0)
(11.5482 1.71059 0)
(11.4518 1.61949 0)
(11.3347 1.52787 0)
(11.2024 1.43808 0)
(11.0595 1.35163 0)
(10.9098 1.2694 0)
(10.7561 1.19182 0)
(10.6009 1.11906 0)
(10.4458 1.05108 0)
(10.2923 0.987728 0)
(10.1413 0.928773 0)
(9.99351 0.873951 0)
(9.84956 0.822983 0)
(9.70977 0.775587 0)
(9.57436 0.731489 0)
(9.44348 0.690429 0)
(9.31718 0.652163 0)
(9.19548 0.616461 0)
(9.07833 0.583114 0)
(8.96566 0.551928 0)
(8.85739 0.522728 0)
(8.75341 0.49535 0)
(8.6536 0.469648 0)
(8.55783 0.445486 0)
(8.46597 0.422742 0)
(8.3779 0.401305 0)
(8.29349 0.381071 0)
(8.2126 0.361947 0)
(8.13512 0.343849 0)
(8.06091 0.326697 0)
(7.98987 0.310421 0)
(7.92188 0.294954 0)
(7.85682 0.280237 0)
(7.79461 0.266214 0)
(7.73513 0.252833 0)
(7.67829 0.240047 0)
(7.62401 0.227812 0)
(7.57219 0.216087 0)
(7.52276 0.204835 0)
(7.47564 0.19402 0)
(7.43077 0.183609 0)
(7.38806 0.173571 0)
(7.34747 0.163877 0)
(7.30893 0.154499 0)
(7.27238 0.145412 0)
(7.23778 0.13659 0)
(7.20508 0.128011 0)
(7.17423 0.119651 0)
(7.1452 0.111488 0)
(7.11794 0.103502 0)
(7.09243 0.0956719 0)
(7.06864 0.0879775 0)
(7.04653 0.0803988 0)
(7.02609 0.072916 0)
(7.0073 0.0655093 0)
(6.99014 0.0581584 0)
(6.9746 0.050843 0)
(6.96067 0.0435418 0)
(6.94835 0.036233 0)
(6.93763 0.0288935 0)
(6.92852 0.0214988 0)
(6.92103 0.0140229 0)
(6.91516 0.00643731 0)
(6.91093 -0.00128897 0)
(6.90837 -0.00919029 0)
(6.90749 -0.0173053 0)
(6.90833 -0.0256775 0)
(6.91093 -0.0343566 0)
(6.91533 -0.0433999 0)
(6.92158 -0.0528739 0)
(6.92973 -0.0628568 0)
(6.93985 -0.0734414 0)
(6.95201 -0.0847389 0)
(6.9663 -0.0968841 0)
(6.98278 -0.110041 0)
(7.00154 -0.124412 0)
(7.02267 -0.140247 0)
(7.04623 -0.157858 0)
(7.07225 -0.177632 0)
(7.10071 -0.200046 0)
(7.13149 -0.225687 0)
(7.16432 -0.255247 0)
(7.19868 -0.289511 0)
(7.23374 -0.329286 0)
(7.26819 -0.37525 0)
(7.30024 -0.427672 0)
(7.3277 -0.485987 0)
(7.34837 -0.548298 0)
(10.0055 0.173312 0)
(10.0769 0.524404 0)
(10.2205 0.857534 0)
(10.4188 1.15177 0)
(10.6453 1.39603 0)
(10.8773 1.58621 0)
(11.0968 1.72286 0)
(11.2897 1.81018 0)
(11.4472 1.8547 0)
(11.5652 1.86393 0)
(11.6434 1.84542 0)
(11.6837 1.80611 0)
(11.6901 1.75197 0)
(11.6668 1.68792 0)
(11.6185 1.61785 0)
(11.5499 1.5447 0)
(11.4648 1.47066 0)
(11.3671 1.39729 0)
(11.2597 1.32567 0)
(11.1452 1.25652 0)
(11.026 1.19027 0)
(10.9038 1.12716 0)
(10.7799 1.0673 0)
(10.6557 1.01069 0)
(10.532 0.957264 0)
(10.4096 0.90691 0)
(10.289 0.859491 0)
(10.1707 0.814857 0)
(10.055 0.772848 0)
(9.94221 0.733303 0)
(9.83245 0.696064 0)
(9.72585 0.660978 0)
(9.6225 0.627901 0)
(9.52243 0.596693 0)
(9.42565 0.567224 0)
(9.33215 0.539374 0)
(9.2419 0.513028 0)
(9.15485 0.48808 0)
(9.07096 0.464432 0)
(8.99016 0.441993 0)
(8.91238 0.420678 0)
(8.83756 0.400408 0)
(8.76563 0.381111 0)
(8.69651 0.362718 0)
(8.63012 0.345167 0)
(8.5664 0.328399 0)
(8.50528 0.312359 0)
(8.44668 0.296997 0)
(8.39053 0.282265 0)
(8.33678 0.268119 0)
(8.28535 0.254517 0)
(8.23619 0.24142 0)
(8.18923 0.228793 0)
(8.14443 0.216599 0)
(8.10172 0.204806 0)
(8.06107 0.193384 0)
(8.02241 0.182302 0)
(7.98572 0.171533 0)
(7.95094 0.16105 0)
(7.91804 0.150826 0)
(7.88698 0.140837 0)
(7.85773 0.131057 0)
(7.83026 0.121464 0)
(7.80455 0.112034 0)
(7.78057 0.102743 0)
(7.7583 0.093568 0)
(7.73772 0.0844866 0)
(7.71882 0.0754749 0)
(7.70158 0.0665091 0)
(7.686 0.0575645 0)
(7.67208 0.0486156 0)
(7.65981 0.0396358 0)
(7.64919 0.0305967 0)
(7.64024 0.0214682 0)
(7.63295 0.0122177 0)
(7.62734 0.00280986 0)
(7.62343 -0.00679435 0)
(7.62125 -0.0166383 0)
(7.62081 -0.0267706 0)
(7.62214 -0.0372465 0)
(7.62529 -0.0481285 0)
(7.63029 -0.059489 0)
(7.63719 -0.0714115 0)
(7.64602 -0.0839941 0)
(7.65685 -0.0973521 0)
(7.66973 -0.111623 0)
(7.6847 -0.126969 0)
(7.70181 -0.143587 0)
(7.72109 -0.161712 0)
(7.74254 -0.181627 0)
(7.76614 -0.203668 0)
(7.79178 -0.228235 0)
(7.81926 -0.255784 0)
(7.84825 -0.286826 0)
(7.87821 -0.321888 0)
(7.90837 -0.361447 0)
(7.93764 -0.405814 0)
(7.96465 -0.45494 0)
(7.98787 -0.508181 0)
(8.00587 -0.564063 0)
(10.004 0.141839 0)
(10.0556 0.430112 0)
(10.1624 0.709094 0)
(10.3154 0.964342 0)
(10.4984 1.1869 0)
(10.6968 1.37211 0)
(10.8971 1.51837 0)
(11.0877 1.62662 0)
(11.2596 1.6997 0)
(11.4067 1.74167 0)
(11.5256 1.75717 0)
(11.6151 1.75095 0)
(11.6759 1.72752 0)
(11.7096 1.69094 0)
(11.7188 1.64471 0)
(11.7063 1.59175 0)
(11.6751 1.5344 0)
(11.628 1.47455 0)
(11.5677 1.41361 0)
(11.4967 1.35268 0)
(11.4171 1.29256 0)
(11.3307 1.23381 0)
(11.2393 1.17683 0)
(11.1442 1.12188 0)
(11.0466 1.06911 0)
(10.9474 1.0186 0)
(10.8475 0.970375 0)
(10.7476 0.924407 0)
(10.6481 0.880649 0)
(10.5496 0.839032 0)
(10.4525 0.799472 0)
(10.357 0.761879 0)
(10.2633 0.726156 0)
(10.1717 0.692206 0)
(10.0822 0.659934 0)
(9.99509 0.629244 0)
(9.9103 0.600045 0)
(9.82793 0.572248 0)
(9.748 0.545769 0)
(9.67054 0.520526 0)
(9.59555 0.496445 0)
(9.52301 0.473452 0)
(9.45291 0.45148 0)
(9.38523 0.430463 0)
(9.31993 0.410341 0)
(9.25699 0.391058 0)
(9.19637 0.372558 0)
(9.13803 0.354792 0)
(9.08193 0.33771 0)
(9.02803 0.321269 0)
(8.97628 0.305424 0)
(8.92666 0.290136 0)
(8.87912 0.275366 0)
(8.83362 0.261077 0)
(8.79012 0.247235 0)
(8.74858 0.233806 0)
(8.70898 0.220759 0)
(8.67128 0.208062 0)
(8.63544 0.195688 0)
(8.60144 0.183606 0)
(8.56925 0.17179 0)
(8.53884 0.160212 0)
(8.51019 0.148847 0)
(8.48328 0.137667 0)
(8.45809 0.126647 0)
(8.4346 0.115761 0)
(8.4128 0.104984 0)
(8.39267 0.094288 0)
(8.37422 0.0836473 0)
(8.35742 0.0730341 0)
(8.34229 0.0624197 0)
(8.32881 0.0517743 0)
(8.31698 0.0410663 0)
(8.30682 0.0302621 0)
(8.29833 0.0193257 0)
(8.29153 0.00821819 0)
(8.28642 -0.00310324 0)
(8.28302 -0.0146856 0)
(8.28136 -0.0265815 0)
(8.28145 -0.0388497 0)
(8.28333 -0.0515565 0)
(8.28702 -0.0647775 0)
(8.29256 -0.0785989 0)
(8.29997 -0.0931202 0)
(8.30929 -0.108457 0)
(8.32055 -0.124743 0)
(8.33376 -0.142134 0)
(8.34893 -0.160814 0)
(8.36606 -0.180995 0)
(8.38511 -0.202924 0)
(8.40599 -0.226884 0)
(8.42856 -0.253194 0)
(8.45258 -0.282198 0)
(8.47769 -0.314255 0)
(8.5034 -0.349699 0)
(8.52902 -0.388784 0)
(8.55368 -0.431599 0)
(8.57635 -0.477943 0)
(8.59596 -0.527199 0)
(8.61157 -0.578233 0)
(10.003 0.118661 0)
(10.0417 0.359745 0)
(10.1227 0.595658 0)
(10.2415 0.816427 0)
(10.3883 1.01522 0)
(10.5533 1.18789 0)
(10.7276 1.3323 0)
(10.9022 1.448 0)
(11.0695 1.53594 0)
(11.2237 1.59809 0)
(11.3602 1.63706 0)
(11.4764 1.65583 0)
(11.5709 1.65746 0)
(11.6436 1.64496 0)
(11.6951 1.6211 0)
(11.7267 1.58838 0)
(11.74 1.54894 0)
(11.7369 1.50463 0)
(11.7193 1.45695 0)
(11.6891 1.40714 0)
(11.6482 1.35619 0)
(11.5981 1.30488 0)
(11.5405 1.25381 0)
(11.4767 1.20342 0)
(11.4079 1.15407 0)
(11.3353 1.10598 0)
(11.2596 1.05934 0)
(11.1817 1.01425 0)
(11.1024 0.97077 0)
(11.0222 0.928933 0)
(10.9416 0.888739 0)
(10.861 0.85017 0)
(10.7808 0.813191 0)
(10.7014 0.777758 0)
(10.6229 0.743819 0)
(10.5456 0.711316 0)
(10.4697 0.68019 0)
(10.3952 0.650379 0)
(10.3224 0.62182 0)
(10.2513 0.594452 0)
(10.1819 0.568214 0)
(10.1144 0.543047 0)
(10.0487 0.518893 0)
(9.98492 0.495696 0)
(9.92307 0.473402 0)
(9.86313 0.451961 0)
(9.80513 0.431323 0)
(9.74906 0.41144 0)
(9.69491 0.392267 0)
(9.64268 0.373761 0)
(9.59234 0.35588 0)
(9.54388 0.338584 0)
(9.49729 0.321836 0)
(9.45255 0.305598 0)
(9.40963 0.289836 0)
(9.36852 0.274516 0)
(9.3292 0.259605 0)
(9.29165 0.245072 0)
(9.25585 0.230885 0)
(9.22179 0.217016 0)
(9.18943 0.203434 0)
(9.15878 0.190112 0)
(9.12981 0.17702 0)
(9.1025 0.164132 0)
(9.07686 0.151418 0)
(9.05285 0.138852 0)
(9.03049 0.126405 0)
(9.00976 0.114048 0)
(8.99064 0.101754 0)
(8.97315 0.0894904 0)
(8.95728 0.0772277 0)
(8.94303 0.0649332 0)
(8.9304 0.0525727 0)
(8.9194 0.04011 0)
(8.91003 0.0275064 0)
(8.9023 0.0147202 0)
(8.89623 0.00170598 0)
(8.89183 -0.011586 0)
(8.88912 -0.0252106 0)
(8.8881 -0.0392289 0)
(8.88881 -0.0537089 0)
(8.89126 -0.0687274 0)
(8.89547 -0.0843705 0)
(8.90146 -0.100736 0)
(8.90923 -0.117937 0)
(8.91881 -0.136099 0)
(8.93017 -0.155368 0)
(8.94332 -0.175908 0)
(8.9582 -0.197907 0)
(8.97475 -0.221574 0)
(8.99285 -0.247139 0)
(9.01233 -0.274847 0)
(9.03294 -0.304952 0)
(9.05434 -0.337692 0)
(9.07607 -0.373263 0)
(9.09758 -0.411776 0)
(9.11816 -0.45319 0)
(9.13705 -0.497246 0)
(9.1535 -0.543393 0)
(9.16687 -0.590754 0)
(10.0023 0.101009 0)
(10.0322 0.305884 0)
(10.0951 0.507603 0)
(10.1886 0.699163 0)
(10.3064 0.875427 0)
(10.4425 1.03299 0)
(10.5906 1.16978 0)
(10.7443 1.28489 0)
(10.8979 1.37841 0)
(11.0461 1.45116 0)
(11.185 1.50452 0)
(11.3112 1.54026 0)
(11.4227 1.56032 0)
(11.5181 1.56678 0)
(11.597 1.56165 0)
(11.6593 1.54685 0)
(11.7058 1.52418 0)
(11.7372 1.4952 0)
(11.7546 1.46133 0)
(11.7593 1.42376 0)
(11.7527 1.38351 0)
(11.7358 1.34142 0)
(11.7102 1.29821 0)
(11.6768 1.25444 0)
(11.6368 1.21057 0)
(11.5911 1.16696 0)
(11.5408 1.1239 0)
(11.4867 1.08159 0)
(11.4294 1.04021 0)
(11.3696 0.999862 0)
(11.3079 0.960638 0)
(11.2449 0.92259 0)
(11.1808 0.885745 0)
(11.1163 0.850115 0)
(11.0514 0.815697 0)
(10.9867 0.782477 0)
(10.9223 0.750432 0)
(10.8584 0.719533 0)
(10.7952 0.689745 0)
(10.7329 0.66103 0)
(10.6716 0.63335 0)
(10.6114 0.606662 0)
(10.5524 0.580924 0)
(10.4948 0.556094 0)
(10.4385 0.532129 0)
(10.3836 0.508988 0)
(10.3302 0.486629 0)
(10.2783 0.465012 0)
(10.2279 0.444096 0)
(10.179 0.423844 0)
(10.1317 0.404218 0)
(10.086 0.385181 0)
(10.0419 0.366698 0)
(9.99932 0.348734 0)
(9.95835 0.331255 0)
(9.91897 0.314229 0)
(9.88117 0.297624 0)
(9.84495 0.281408 0)
(9.81031 0.265551 0)
(9.77724 0.250023 0)
(9.74573 0.234795 0)
(9.71578 0.219836 0)
(9.68739 0.205118 0)
(9.66055 0.190612 0)
(9.63525 0.17629 0)
(9.6115 0.162122 0)
(9.58928 0.148078 0)
(9.56861 0.134129 0)
(9.54947 0.120244 0)
(9.53187 0.106391 0)
(9.51581 0.0925386 0)
(9.5013 0.0786514 0)
(9.48833 0.0646938 0)
(9.47692 0.0506279 0)
(9.46707 0.036413 0)
(9.45879 0.0220058 0)
(9.45209 0.00735916 0)
(9.44698 -0.00757816 0)
(9.44347 -0.0228622 0)
(9.44158 -0.0385546 0)
(9.44132 -0.0547237 0)
(9.4427 -0.0714451 0)
(9.44572 -0.0888031 0)
(9.45039 -0.106892 0)
(9.45672 -0.125817 0)
(9.46468 -0.145696 0)
(9.47427 -0.166661 0)
(9.48544 -0.188856 0)
(9.49812 -0.212441 0)
(9.51224 -0.23759 0)
(9.52766 -0.264484 0)
(9.54419 -0.293307 0)
(9.5616 -0.324238 0)
(9.57957 -0.357427 0)
(9.59771 -0.392976 0)
(9.61555 -0.430902 0)
(9.63254 -0.471099 0)
(9.64813 -0.513295 0)
(9.66176 -0.557015 0)
(9.67303 -0.601573 0)
(10.0019 0.0871853 0)
(10.0255 0.263668 0)
(10.0753 0.438035 0)
(10.15 0.605245 0)
(10.2455 0.761419 0)
(10.3578 0.903821 0)
(10.4825 1.03064 0)
(10.6152 1.1409 0)
(10.7516 1.2343 0)
(10.8877 1.31114 0)
(11.02 1.37209 0)
(11.1455 1.41816 0)
(11.262 1.45057 0)
(11.3677 1.47068 0)
(11.4614 1.47988 0)
(11.5427 1.47957 0)
(11.6111 1.47111 0)
(11.6669 1.45578 0)
(11.7105 1.43474 0)
(11.7425 1.40905 0)
(11.7637 1.37965 0)
(11.7748 1.34735 0)
(11.7768 1.31287 0)
(11.7706 1.2768 0)
(11.757 1.23966 0)
(11.7369 1.20187 0)
(11.711 1.16379 0)
(11.6801 1.12569 0)
(11.645 1.08783 0)
(11.6061 1.05037 0)
(11.5642 1.01348 0)
(11.5197 0.977252 0)
(11.4731 0.941789 0)
(11.4249 0.907148 0)
(11.3754 0.873373 0)
(11.3249 0.840492 0)
(11.2737 0.80852 0)
(11.2222 0.77746 0)
(11.1705 0.74731 0)
(11.1189 0.718059 0)
(11.0676 0.689689 0)
(11.0166 0.662182 0)
(10.9662 0.635512 0)
(10.9164 0.609654 0)
(10.8675 0.584579 0)
(10.8194 0.560258 0)
(10.7722 0.536661 0)
(10.7261 0.513757 0)
(10.681 0.491513 0)
(10.6371 0.469899 0)
(10.5943 0.448884 0)
(10.5528 0.428435 0)
(10.5125 0.408522 0)
(10.4734 0.389114 0)
(10.4357 0.370181 0)
(10.3993 0.351693 0)
(10.3642 0.333619 0)
(10.3304 0.31593 0)
(10.298 0.298598 0)
(10.267 0.281592 0)
(10.2373 0.264885 0)
(10.209 0.248448 0)
(10.1821 0.232251 0)
(10.1565 0.216266 0)
(10.1324 0.200463 0)
(10.1097 0.184815 0)
(10.0884 0.169289 0)
(10.0684 0.153856 0)
(10.0499 0.138485 0)
(10.0328 0.123143 0)
(10.0172 0.107796 0)
(10.003 0.0924089 0)
(9.99017 0.0769456 0)
(9.97883 0.0613666 0)
(9.96895 0.0456305 0)
(9.96054 0.0296931 0)
(9.9536 0.0135068 0)
(9.94814 -0.0029802 0)
(9.94418 -0.0198238 0)
(9.94171 -0.0370852 0)
(9.94076 -0.0548311 0)
(9.94131 -0.0731348 0)
(9.94338 -0.0920768 0)
(9.94695 -0.111746 0)
(9.95201 -0.132239 0)
(9.95855 -0.153663 0)
(9.96653 -0.176135 0)
(9.97589 -0.199779 0)
(9.98656 -0.22473 0)
(9.99844 -0.251127 0)
(10.0114 -0.27911 0)
(10.0252 -0.308814 0)
(10.0398 -0.340358 0)
(10.0547 -0.37383 0)
(10.0696 -0.409267 0)
(10.0843 -0.446632 0)
(10.0981 -0.485789 0)
(10.1108 -0.526476 0)
(10.122 -0.568291 0)
(10.1313 -0.610692 0)
(10.0015 0.076104 0)
(10.0206 0.229868 0)
(10.0608 0.382095 0)
(10.1215 0.529059 0)
(10.1998 0.667788 0)
(10.2928 0.796089 0)
(10.3978 0.912427 0)
(10.5115 1.01587 0)
(10.6308 1.10602 0)
(10.7525 1.18288 0)
(10.874 1.24679 0)
(10.9928 1.29831 0)
(11.1067 1.3382 0)
(11.2141 1.36734 0)
(11.3135 1.38668 0)
(11.404 1.39721 0)
(11.4851 1.39992 0)
(11.5563 1.39577 0)
(11.6175 1.3857 0)
(11.669 1.37057 0)
(11.7109 1.35117 0)
(11.7438 1.32823 0)
(11.7681 1.3024 0)
(11.7844 1.27425 0)
(11.7933 1.24429 0)
(11.7955 1.21295 0)
(11.7915 1.18061 0)
(11.782 1.1476 0)
(11.7675 1.11419 0)
(11.7486 1.0806 0)
(11.7258 1.04704 0)
(11.6997 1.01365 0)
(11.6706 0.980568 0)
(11.639 0.947897 0)
(11.6052 0.91572 0)
(11.5697 0.884101 0)
(11.5327 0.853089 0)
(11.4946 0.82272 0)
(11.4555 0.793018 0)
(11.4157 0.763999 0)
(11.3755 0.73567 0)
(11.335 0.708032 0)
(11.2944 0.681082 0)
(11.2539 0.654809 0)
(11.2136 0.629202 0)
(11.1736 0.604244 0)
(11.134 0.579919 0)
(11.0949 0.556205 0)
(11.0565 0.533083 0)
(11.0187 0.510528 0)
(10.9817 0.488517 0)
(10.9456 0.467027 0)
(10.9103 0.446031 0)
(10.8759 0.425504 0)