/*--------------------------------*- C++ -*----------------------------------*\
| =========                 |                                                 |
| \\      /  F ield         | OpenFOAM: The Open Source CFD Toolbox           |
|  \\    /   O peration     | Version:  2406                                  |
|   \\  /    A nd           | Website:  www.openfoam.com                      |
|    \\/     M anipulation  |                                                 |
\*---------------------------------------------------------------------------*/
FoamFile
{
    version     2.0;
    format      ascii;
    arch        "LSB;label=32;scalar=64";
    class       volVectorField;
    location    "100";
    object      U;
}
// * * * * * * * * * * * * * * * * * * * * * * * * * * * * * * * * * * * * * //

dimensions      [0 1 -1 0 0 0 0];

internalField   nonuniform List<vector> 
12225
(
(9.8914 0.0258841 0)
(9.77879 0.0277849 0)
(9.69279 0.0191633 0)
(9.61975 0.0147312 0)
(9.55877 0.0130373 0)
(9.5049 0.0121488 0)
(9.45511 0.0116092 0)
(9.40831 0.0113379 0)
(9.36363 0.011297 0)
(9.32009 0.01149 0)
(9.27665 0.0119694 0)
(9.23222 0.0128422 0)
(9.18479 0.0143433 0)
(9.13301 0.0170145 0)
(9.06557 0.022256 0)
(8.99251 0.0344287 0)
(8.75379 0.0991627 0)
(8.765 -0.136827 0)
(9.99696 0.0296547 0)
(9.95597 0.0320672 0)
(9.88671 0.0245134 0)
(9.81865 0.0213976 0)
(9.76032 0.0198007 0)
(9.70833 0.018625 0)
(9.66009 0.0179285 0)
(9.61467 0.0176442 0)
(9.5713 0.0177055 0)
(9.52913 0.0181349 0)
(9.48727 0.0190215 0)
(9.44489 0.0205594 0)
(9.40042 0.0230764 0)
(9.35337 0.0276624 0)
(9.29631 0.0355223 0)
(9.24175 0.0580921 0)
(9.14169 0.107716 0)
(9.20256 0.288884 0)
(10.0077 0.0335841 0)
(10.01 0.0427745 0)
(9.9794 0.0386266 0)
(9.93484 0.0361749 0)
(9.89024 0.0341551 0)
(9.84749 0.0324801 0)
(9.80611 0.0315084 0)
(9.76599 0.031171 0)
(9.72684 0.031391 0)
(9.68812 0.0322217 0)
(9.64915 0.0338112 0)
(9.60923 0.0364732 0)
(9.56707 0.0406896 0)
(9.52215 0.0480112 0)
(9.46968 0.0598115 0)
(9.41722 0.087662 0)
(9.34897 0.135451 0)
(9.35701 0.267429 0)
(10.0074 0.029107 0)
(10.0249 0.0444402 0)
(10.0205 0.045513 0)
(9.99955 0.0456483 0)
(9.97258 0.0448778 0)
(9.94305 0.0437887 0)
(9.91193 0.0431714 0)
(9.88002 0.0431809 0)
(9.84763 0.0438401 0)
(9.81462 0.0452752 0)
(9.78064 0.0477113 0)
(9.74522 0.0515703 0)
(9.70748 0.0574757 0)
(9.6671 0.0671422 0)
(9.62167 0.0821403 0)
(9.57622 0.111436 0)
(9.527 0.154376 0)
(9.51568 0.239309 0)
(10.0054 0.0236969 0)
(10.0245 0.0418393 0)
(10.0326 0.0467207 0)
(10.0278 0.0495946 0)
(10.0159 0.0509532 0)
(9.99956 0.051354 0)
(9.97969 0.0517893 0)
(9.95732 0.0526656 0)
(9.93314 0.0541565 0)
(9.90733 0.0564896 0)
(9.87981 0.0599819 0)
(9.85041 0.065144 0)
(9.81866 0.0726997 0)
(9.78457 0.0842962 0)
(9.74739 0.101504 0)
(9.71083 0.130358 0)
(9.67613 0.169556 0)
(9.66362 0.231983 0)
(10.0037 0.0192278 0)
(10.02 0.0380319 0)
(10.0319 0.0452254 0)
(10.0353 0.0500791 0)
(10.0331 0.0534115 0)
(10.0268 0.0555311 0)
(10.0165 0.0573721 0)
(10.003 0.0594701 0)
(9.98692 0.0621068 0)
(9.96857 0.0655925 0)
(9.94804 0.0703219 0)
(9.92534 0.0768625 0)
(9.90039 0.0859779 0)
(9.87351 0.0991106 0)
(9.84495 0.117645 0)
(9.81773 0.145292 0)
(9.7948 0.18102 0)
(9.78663 0.229367 0)
(10.0025 0.0157432 0)
(10.0153 0.0341302 0)
(10.0271 0.0427146 0)
(10.0336 0.0487901 0)
(10.0362 0.0535393 0)
(10.0357 0.0571321 0)
(10.032 0.0603402 0)
(10.0253 0.063725 0)
(10.0159 0.0676159 0)
(10.004 0.07236 0)
(9.98995 0.0783893 0)
(9.97372 0.0862825 0)
(9.95551 0.0967755 0)
(9.93584 0.111039 0)
(9.91552 0.130158 0)
(9.89704 0.156176 0)
(9.88341 0.188166 0)
(9.88025 0.226349 0)
(10.0017 0.0130427 0)
(10.0114 0.0304923 0)
(10.0218 0.0399327 0)
(10.0289 0.0467571 0)
(10.0333 0.0524242 0)
(10.0356 0.057114 0)
(10.0355 0.0614438 0)
(10.0329 0.0659592 0)
(10.0282 0.071008 0)
(10.0212 0.0769389 0)
(10.0123 0.0841791 0)
(10.0015 0.0932711 0)
(9.98924 0.104865 0)
(9.97602 0.119842 0)
(9.96289 0.138946 0)
(9.95184 0.163112 0)
(9.94532 0.191409 0)
(9.94646 0.222421 0)
(10.0012 0.0109638 0)
(10.0085 0.0272414 0)
(10.0172 0.0371859 0)
(10.024 0.0445159 0)
(10.0287 0.050786 0)
(10.032 0.0562647 0)
(10.0335 0.0614537 0)
(10.0332 0.0668696 0)
(10.0312 0.0728712 0)
(10.0275 0.079795 0)
(10.0222 0.0880359 0)
(10.0156 0.0980672 0)
(10.008 0.110418 0)
(9.99998 0.125694 0)
(9.99257 0.144324 0)
(9.98731 0.166566 0)
(9.98595 0.191507 0)
(9.99027 0.2174 0)
(10.0008 0.00937056 0)
(10.0063 0.0243976 0)
(10.0136 0.0345761 0)
(10.0197 0.0422786 0)
(10.0243 0.0489785 0)
(10.0277 0.055044 0)
(10.0299 0.0608961 0)
(10.0307 0.0670115 0)
(10.0302 0.0737526 0)
(10.0285 0.0814393 0)
(10.0257 0.0904208 0)
(10.022 0.101087 0)
(10.0178 0.113832 0)
(10.0136 0.129031 0)
(10.0104 0.146858 0)
(10.0093 0.167199 0)
(10.0114 0.189207 0)
(10.0178 0.211306 0)
(10.0006 0.00814536 0)
(10.0047 0.021939 0)
(10.0107 0.0321272 0)
(10.0162 0.0400955 0)
(10.0205 0.0471194 0)
(10.0239 0.053638 0)
(10.0263 0.0600167 0)
(10.0278 0.0666815 0)
(10.0282 0.0739847 0)
(10.0277 0.0822239 0)
(10.0266 0.0916966 0)
(10.0249 0.102706 0)
(10.0231 0.115522 0)
(10.0218 0.130338 0)
(10.0215 0.147152 0)
(10.0232 0.165676 0)
(10.0274 0.185166 0)
(10.0349 0.204363 0)
(10.0004 0.0072411 0)
(10.0037 0.0199873 0)
(10.0087 0.0300403 0)
(10.0136 0.0381643 0)
(10.0177 0.045416 0)
(10.0211 0.0522617 0)
(10.0237 0.0590302 0)
(10.0255 0.0660968 0)
(10.0265 0.0737911 0)
(10.0269 0.0823833 0)
(10.0269 0.0921203 0)
(10.0267 0.10323 0)
(10.0266 0.115884 0)
(10.027 0.130155 0)
(10.0286 0.145941 0)
(10.0319 0.162902 0)
(10.0373 0.180411 0)
(10.0452 0.197503 0)
(10.0003 0.00651568 0)
(10.0029 0.0182505 0)
(10.0071 0.0280444 0)
(10.0116 0.0362379 0)
(10.0155 0.043654 0)
(10.0189 0.050748 0)
(10.0217 0.0578221 0)
(10.0238 0.0652011 0)
(10.0255 0.0731814 0)
(10.0267 0.082001 0)
(10.0276 0.0918586 0)
(10.0285 0.102914 0)
(10.0298 0.115262 0)
(10.0317 0.128894 0)
(10.0346 0.143652 0)
(10.0391 0.1592 0)
(10.0452 0.175024 0)
(10.0532 0.190383 0)
(10.0002 0.00585065 0)
(10.0023 0.016523 0)
(10.0058 0.0259121 0)
(10.0099 0.0340686 0)
(10.0137 0.0415778 0)
(10.0171 0.0488521 0)
(10.0201 0.0561676 0)
(10.0227 0.0637937 0)
(10.025 0.0719788 0)
(10.0271 0.0809202 0)
(10.029 0.0907664 0)
(10.0311 0.101613 0)
(10.0337 0.113487 0)
(10.0368 0.126325 0)
(10.041 0.13995 0)
(10.0463 0.154062 0)
(10.0529 0.168269 0)
(10.0609 0.18202 0)
(10.0002 0.00522051 0)
(10.0019 0.0147889 0)
(10.0049 0.0236158 0)
(10.0085 0.0315832 0)
(10.0122 0.0390664 0)
(10.0158 0.0464069 0)
(10.0192 0.0538462 0)
(10.0223 0.0615984 0)
(10.0254 0.0698544 0)
(10.0283 0.0787633 0)
(10.0314 0.0884224 0)
(10.0347 0.0988747 0)
(10.0384 0.110099 0)
(10.0428 0.122004 0)
(10.048 0.13442 0)
(10.054 0.147111 0)
(10.061 0.159799 0)
(10.069 0.172087 0)
(10.0002 0.0045953 0)
(10.0016 0.0130038 0)
(10.0042 0.0210929 0)
(10.0077 0.0286672 0)
(10.0114 0.0359437 0)
(10.0152 0.0431757 0)
(10.019 0.0505568 0)
(10.0228 0.0582467 0)
(10.0267 0.0663787 0)
(10.0307 0.0750499 0)
(10.0348 0.0843123 0)
(10.0393 0.0941704 0)
(10.0442 0.104577 0)
(10.0497 0.115438 0)
(10.0558 0.126612 0)
(10.0625 0.137928 0)
(10.0699 0.149205 0)
(10.0779 0.160162 0)
(10.0001 0.00392908 0)
(10.0014 0.0110651 0)
(10.0039 0.018199 0)
(10.0073 0.0251155 0)
(10.0112 0.0319266 0)
(10.0154 0.0387964 0)
(10.0198 0.0458604 0)
(10.0244 0.0532249 0)
(10.0292 0.0609712 0)
(10.0342 0.0691483 0)
(10.0394 0.0777727 0)
(10.045 0.0868242 0)
(10.051 0.0962506 0)
(10.0575 0.105969 0)
(10.0644 0.115875 0)
(10.0719 0.125851 0)
(10.0797 0.135792 0)
(10.0879 0.145495 0)
(10.0002 0.00314497 0)
(10.0014 0.00877881 0)
(10.004 0.0146584 0)
(10.0076 0.0205778 0)
(10.0119 0.0265808 0)
(10.0166 0.0327521 0)
(10.0217 0.0391653 0)
(10.0271 0.0458758 0)
(10.0328 0.0529189 0)
(10.0389 0.0603062 0)
(10.0452 0.0680271 0)
(10.0519 0.0760502 0)
(10.059 0.0843266 0)
(10.0664 0.0927923 0)
(10.0742 0.101375 0)
(10.0823 0.11 0)
(10.0907 0.118607 0)
(10.0993 0.127049 0)
(10.0002 0.00211252 0)
(10.0016 0.00579696 0)
(10.0045 0.00995645 0)
(10.0086 0.0144187 0)
(10.0135 0.0191693 0)
(10.019 0.0242125 0)
(10.0249 0.0295607 0)
(10.0313 0.0352213 0)
(10.038 0.0411907 0)
(10.0451 0.0474505 0)
(10.0525 0.0539729 0)
(10.0603 0.0607203 0)
(10.0683 0.0676501 0)
(10.0766 0.0747138 0)
(10.0852 0.0818627 0)
(10.0941 0.0890479 0)
(10.1031 0.0962342 0)
(10.1122 0.103315 0)
(10.0002 0.000963305 0)
(10.002 0.00252388 0)
(10.0055 0.00479048 0)
(10.0103 0.00765054 0)
(10.0159 0.0110142 0)
(10.0222 0.0148004 0)
(10.029 0.0189654 0)
(10.0362 0.0234805 0)
(10.0438 0.0283078 0)
(10.0517 0.0334075 0)
(10.0599 0.0387378 0)
(10.0685 0.0442596 0)
(10.0773 0.049932 0)
(10.0863 0.0557175 0)
(10.0956 0.0615773 0)
(10.105 0.0674777 0)
(10.1146 0.0733922 0)
(10.1243 0.0792423 0)
(10.0003 -0.000178505 0)
(10.0025 -0.000662151 0)
(10.0067 -9.66046e-05 0)
(10.0123 0.0014145 0)
(10.0187 0.00363818 0)
(10.0257 0.00639559 0)
(10.0331 0.00960389 0)
(10.041 0.0132029 0)
(10.0492 0.0171251 0)
(10.0578 0.0213112 0)
(10.0666 0.0257113 0)
(10.0757 0.0302845 0)
(10.085 0.0349913 0)
(10.0945 0.0397986 0)
(10.1042 0.0446737 0)
(10.1141 0.0495888 0)
(10.1241 0.054523 0)
(10.1341 0.0594134 0)
(10.0004 -0.00145094 0)
(10.0032 -0.00409469 0)
(10.0084 -0.00511349 0)
(10.015 -0.00474949 0)
(10.0222 -0.00349211 0)
(10.0298 -0.00161418 0)
(10.0379 0.000783201 0)
(10.0463 0.00360523 0)
(10.0551 0.00675388 0)
(10.0641 0.0101538 0)
(10.0734 0.0137544 0)
(10.0829 0.0175118 0)
(10.0926 0.0213917 0)
(10.1024 0.0253606 0)
(10.1125 0.0293934 0)
(10.1226 0.0334635 0)
(10.1329 0.0375568 0)
(10.1431 0.0416195 0)
(10.0005 -0.00294972 0)
(10.0043 -0.00790859 0)
(10.0109 -0.0103054 0)
(10.0185 -0.0108372 0)
(10.0265 -0.0103682 0)
(10.0348 -0.00920894 0)
(10.0435 -0.0074625 0)
(10.0524 -0.00526967 0)
(10.0616 -0.00276142 0)
(10.0709 -1.68614e-05 0)
(10.0804 0.00291401 0)
(10.0901 0.00599035 0)
(10.1 0.00917738 0)
(10.11 0.0124466 0)
(10.1201 0.0157737 0)
(10.1303 0.0191376 0)
(10.1405 0.0225253 0)
(10.1507 0.0258911 0)
(10.0008 -0.00482312 0)
(10.0061 -0.0122339 0)
(10.0144 -0.0156563 0)
(10.0233 -0.0167977 0)
(10.0319 -0.0169376 0)
(10.0408 -0.0163169 0)
(10.0498 -0.015041 0)
(10.0589 -0.0133163 0)
(10.0681 -0.0112962 0)
(10.0773 -0.0090538 0)
(10.0866 -0.00663534 0)
(10.0959 -0.00408066 0)
(10.1053 -0.00142476 0)
(10.1147 0.00130639 0)
(10.1242 0.00408925 0)
(10.1337 0.00690569 0)
(10.1432 0.00974369 0)
(10.1526 0.0125582 0)
(10.0012 -0.00728188 0)
(10.0089 -0.0171429 0)
(10.0194 -0.0210937 0)
(10.0292 -0.022559 0)
(10.0381 -0.0230877 0)
(10.0469 -0.0227458 0)
(10.0554 -0.0216865 0)
(10.0636 -0.0201918 0)
(10.0715 -0.0184217 0)
(10.0792 -0.0164421 0)
(10.0867 -0.0143012 0)
(10.0941 -0.0120441 0)
(10.1015 -0.00970568 0)
(10.1089 -0.00731262 0)
(10.1163 -0.00488496 0)
(10.1237 -0.00244051 0)
(10.1312 1.38085e-05 0)
(10.1386 0.00242708 0)
(10.002 -0.0106588 0)
(10.0131 -0.0226065 0)
(10.0256 -0.0264423 0)
(10.0351 -0.0278801 0)
(10.0425 -0.0283506 0)
(10.0487 -0.0277742 0)
(10.0539 -0.0264731 0)
(10.0582 -0.0248105 0)
(10.0618 -0.0229388 0)
(10.0652 -0.0209198 0)
(10.0683 -0.0188071 0)
(10.0715 -0.0166436 0)
(10.0747 -0.0144581 0)
(10.0781 -0.0122688 0)
(10.0816 -0.0100876 0)
(10.0854 -0.00792402 0)
(10.0894 -0.00577703 0)
(10.0936 -0.00368925 0)
(10.0035 -0.0155464 0)
(10.0187 -0.0284734 0)
(10.0304 -0.0310216 0)
(10.0347 -0.0316163 0)
(10.0348 -0.0311496 0)
(10.0329 -0.0295872 0)
(10.0296 -0.0275369 0)
(10.0255 -0.0253953 0)
(10.0213 -0.023251 0)
(10.0174 -0.0211229 0)
(10.0138 -0.0190334 0)
(10.0108 -0.0169971 0)
(10.0085 -0.0150176 0)
(10.0067 -0.0130938 0)
(10.0056 -0.0112236 0)
(10.005 -0.00940234 0)
(10.0051 -0.00762188 0)
(10.0057 -0.00587892 0)
(10.0063 -0.0220289 0)
(10.0215 -0.0332644 0)
(10.0215 -0.0318825 0)
(10.009 -0.0300553 0)
(9.99278 -0.0279694 0)
(9.97636 -0.0253923 0)
(9.96056 -0.0228888 0)
(9.94584 -0.0206755 0)
(9.93255 -0.0186835 0)
(9.92079 -0.0168439 0)
(9.91049 -0.0151276 0)
(9.90157 -0.0135163 0)
(9.89396 -0.0119921 0)
(9.88756 -0.0105415 0)
(9.88229 -0.00915585 0)
(9.87805 -0.00782573 0)
(9.8748 -0.00654916 0)
(9.87236 -0.00525049 0)
(10.0087 -0.0234759 0)
(10.0015 -0.0292846 0)
(9.96683 -0.0225642 0)
(9.92577 -0.0185238 0)
(9.88986 -0.016269 0)
(9.85958 -0.0143644 0)
(9.83334 -0.0127343 0)
(9.81045 -0.0113796 0)
(9.79058 -0.0102002 0)
(9.77337 -0.00913211 0)
(9.75847 -0.00815218 0)
(9.74561 -0.00724527 0)
(9.73458 -0.00639771 0)
(9.72519 -0.00559972 0)
(9.71728 -0.00484664 0)
(9.71069 -0.00414038 0)
(9.7054 -0.00349945 0)
(9.70104 -0.00316831 0)
(9.92628 -0.0196881 0)
(9.84312 -0.0255457 0)
(9.78194 -0.019174 0)
(9.73161 -0.0139534 0)
(9.6919 -0.0111237 0)
(9.65967 -0.0094148 0)
(9.63223 -0.00819801 0)
(9.60853 -0.00725109 0)
(9.58814 -0.00645688 0)
(9.57064 -0.00575329 0)
(9.55563 -0.005115 0)
(9.5428 -0.00452972 0)
(9.5319 -0.00398835 0)
(9.52272 -0.00348432 0)
(9.51506 -0.00301357 0)
(9.50874 -0.00258544 0)
(9.50361 -0.00218096 0)
(9.49908 -0.00251667 0)
(0.0114596 -0.0192709 -2.43669e-20)
(0.0172934 -0.0194707 1.36619e-20)
(0.0294961 -0.0187008 0)
(0.0415925 -0.0177199 0)
(0.0527133 -0.016512 0)
(0.0628565 -0.0150287 -1.38686e-20)
(0.0719395 -0.0132665 0)
(0.0797628 -0.0112403 0)
(0.0861137 -0.00896949 0)
(0.0907995 -0.00647484 0)
(0.0936448 -0.00378169 1.42753e-20)
(0.0944856 -0.000920169 0)
(0.0931707 0.0020737 0)
(0.0895811 0.00516962 0)
(0.0836003 0.00834684 0)
(0.0751191 0.011593 1.48965e-20)
(0.0640301 0.0149011 0)
(0.0502227 0.0182711 0)
(0.0335775 0.021707 0)
(0.0139613 0.0252162 0)
(-0.0087698 0.0288027 0)
(-0.0347938 0.0324837 0)
(-0.0643088 0.0362818 0)
(-0.0975333 0.0402128 1.56508e-20)
(-0.134716 0.0442933 -1.55977e-20)
(-0.176131 0.0485412 1.553e-20)
(-0.222081 0.052973 1.54481e-20)
(-0.272893 0.0576064 0)
(-0.328918 0.0624595 0)
(-0.390523 0.0675536 -1.51278e-20)
(-0.458091 0.0729104 -1.50018e-20)
(-0.53201 0.0785544 0)
(-0.612665 0.0845068 0)
(-0.700427 0.0907839 -1.46049e-20)
(-0.795634 0.0973872 0)
(-0.898578 0.104301 0)
(-1.00948 0.111484 1.42693e-20)
(-1.12849 0.118869 0)
(-1.25562 0.126357 1.41513e-20)
(-1.3908 0.13383 2.82831e-20)
(-1.53383 0.14115 0)
(-1.68435 0.148172 0)
(-1.84194 0.154751 0)
(-2.00601 0.160756 0)
(-2.17591 0.16607 0)
(-2.35092 0.170606 3.00945e-20)
(-2.53026 0.174301 3.07534e-20)
(-2.71311 0.17712 3.15108e-20)
(-2.89865 0.179057 0)
(-3.08608 0.18013 -3.32968e-20)
(-3.27461 0.180374 0)
(-3.46349 0.179842 3.53927e-20)
(-3.65204 0.178596 3.65351e-20)
(-3.83959 0.176708 0)
(-4.02559 0.17425 0)
(-4.2095 0.171295 0)
(-4.39087 0.167916 4.15269e-20)
(-4.5693 0.164182 0)
(-4.74444 0.160156 0)
(-4.91602 0.155895 0)
(-5.08378 0.151452 0)
(-5.24753 0.146871 0)
(-5.40711 0.142193 0)
(-5.56239 0.137455 0)
(-5.71328 0.132687 0)
(-5.85971 0.127913 -5.3269e-20)
(-6.00164 0.123154 0)
(-6.13904 0.118429 0)
(-6.27189 0.113756 5.68839e-20)
(-6.40021 0.109146 5.80315e-20)
(-6.52402 0.104612 0)
(-6.64333 0.100163 -6.02304e-20)
(-6.75819 0.0958089 6.12791e-20)
(-6.86864 0.0915545 0)
(-6.97474 0.0874065 -6.32704e-20)
(-7.07653 0.0833661 0)
(-7.17406 0.0794353 0)
(-7.2674 0.0756086 6.59884e-20)
(-7.35658 0.0718782 0)
(-7.44166 0.0682291 -6.76228e-20)
(-7.52268 0.0646456 0)
(-7.59967 0.0611044 6.91177e-20)
(-7.67269 0.0575824 6.98127e-20)
(-7.74175 0.0540537 7.04725e-20)
(-7.8069 0.0504994 1.42193e-19)
(-7.86816 0.0469024 -1.43369e-19)
(-7.92552 0.0432555 0)
(-7.979 0.0395581 0)
(-8.02858 0.0358262 0)
(-8.07426 0.0320771 -1.4734e-19)
(-8.11603 0.0283418 -1.48155e-19)
(-8.15384 0.0246508 1.48906e-19)
(-8.18756 0.0210352 0)
(-8.21703 0.0175164 -1.50238e-19)
(-8.24208 0.0141151 -1.50826e-19)
(-8.26253 0.0108457 -1.51364e-19)
(-8.27821 0.00776136 0)
(-8.28913 0.00496404 0)
(-8.29585 0.00245655 0)
(-8.29893 0.000112458 -1.52736e-19)
(-8.29841 -0.00217097 0)
(-8.29429 -0.00443521 0)
(-8.28654 -0.00669176 1.52881e-19)
(-8.2751 -0.00895169 0)
(-8.25986 -0.0112149 0)
(-8.24074 -0.0134953 1.52292e-19)
(-8.21761 -0.0157935 0)
(-8.19034 -0.0181302 0)
(-8.1588 -0.0205088 -1.50933e-19)
(-8.12283 -0.0229549 -1.503e-19)
(-8.08224 -0.0254745 0)
(-8.03683 -0.0280973 1.48747e-19)
(-7.98636 -0.0308306 0)
(-7.93054 -0.0337062 -1.46793e-19)
(-7.86909 -0.0367311 0)
(-7.80164 -0.0399364 -1.44405e-19)
(-7.72784 -0.0433272 -1.43036e-19)
(-7.64724 -0.0469311 0)
(-7.55943 -0.0507512 0)
(-7.46395 -0.0548107 0)
(-7.36032 -0.059108 0)
(-7.24803 -0.063656 0)
(-7.12655 -0.0684433 0)
(-6.99533 -0.0734789 0)
(-6.85385 -0.0787418 -1.26408e-19)
(-6.70163 -0.0842356 1.23251e-19)
(-6.53827 -0.0899249 0)
(-6.36344 -0.0957948 0)
(-6.17689 -0.10179 0)
(-5.9785 -0.107868 0)
(-5.76827 -0.11395 2.00396e-19)
(-5.54636 -0.119964 0)
(-5.31309 -0.125809 -1.72263e-19)
(-5.06895 -0.131387 1.55497e-19)
(-4.81463 -0.136583 0)
(-4.55098 -0.141289 0)
(-4.27906 -0.145399 0)
(-4.00006 -0.148816 -6.77592e-20)
(-3.71533 -0.151458 -4.03127e-20)
(-3.42629 -0.153263 0)
(-3.13446 -0.154208 2.14145e-20)
(-2.84136 -0.154307 5.57364e-20)
(-2.54852 -0.153614 -9.24085e-20)
(-2.25738 -0.152229 0)
(-1.96931 -0.150284 0)
(-1.68552 -0.147947 -2.17267e-19)
(-1.40699 -0.145386 0)
(-1.13455 -0.142751 0)
(-0.868849 -0.14015 0)
(-0.610191 -0.137556 0)
(-0.359536 -0.134964 4.88041e-19)
(-0.113153 -0.131798 5.23676e-19)
(0.130922 -0.126987 0)
(0.366913 -0.120623 4.8898e-19)
(0.592345 -0.113624 0)
(0.806711 -0.106596 0)
(1.00976 -0.0997378 4.32946e-19)
(1.20157 -0.0931335 0)
(1.3824 -0.0868206 4.03194e-19)
(1.55256 -0.0808143 0)
(1.71242 -0.075118 0)
(1.86236 -0.0697271 3.66303e-19)
(2.0028 -0.064633 0)
(2.13413 -0.0598232 3.45838e-19)
(2.25673 -0.0552835 0)
(2.37098 -0.0509972 0)
(2.47724 -0.046947 0)
(2.57582 -0.0431131 -3.13031e-19)
(2.66702 -0.0394745 0)
(2.75109 -0.0360066 3.002e-19)
(2.82822 -0.0326814 0)
(2.89854 -0.0294629 0)
(2.96208 -0.0263043 0)
(3.01871 -0.0231345 0)
(3.06814 -0.0198422 0)
(3.10936 -0.0161901 0)
(3.14151 -0.0116357 0)
(3.1571 -0.00399498 -5.45762e-19)
(3.15615 0.0114292 0)
(3.0462 0.0392124 0)
(0.0111275 -0.0355393 6.21933e-20)
(0.0161621 -0.0353544 -3.73506e-20)
(0.0271432 -0.0342173 0)
(0.0379132 -0.0324663 2.50484e-20)
(0.0477941 -0.030101 0)
(0.0567406 -0.0271313 1.26e-20)
(0.0646314 -0.0235911 -2.53314e-20)
(0.0712538 -0.0195229 -2.54476e-20)
(0.0763892 -0.0149722 0)
(0.0798383 -0.00998577 -2.57223e-20)
(0.0814171 -0.00461154 -1.29382e-20)
(0.080955 0.00110295 0)
(0.0782878 0.00711378 0)
(0.0732351 0.0133857 0)
(0.0656257 0.0198937 0)
(0.055285 0.0266263 -1.33895e-20)
(0.0420317 0.033584 0)
(0.0256706 0.0407812 2.72386e-20)
(0.00599055 0.0482421 0)
(-0.0172454 0.0560032 0)
(-0.0443042 0.064115 -2.73655e-20)
(-0.0754833 0.072635 0)
(-0.111119 0.0816213 2.71126e-20)
(-0.151592 0.0911375 -1.35224e-20)
(-0.197326 0.101248 1.34254e-20)
(-0.248788 0.112015 -1.33126e-20)
(-0.306484 0.123495 -1.31844e-20)
(-0.370952 0.135735 0)
(-0.442753 0.148768 0)
(-0.522451 0.162611 1.27172e-20)
(-0.610601 0.177259 -1.23291e-20)
(-0.707717 0.19268 0)
(-0.814249 0.208807 0)
(-0.930553 0.225535 1.19878e-20)
(-1.05686 0.242713 0)
(-1.19325 0.260148 0)
(-1.33961 0.277598 -1.15037e-20)
(-1.49568 0.294789 0)
(-1.66096 0.311422 1.09661e-20)
(-1.83479 0.32719 -2.248e-20)
(-2.01634 0.341794 0)
(-2.20465 0.354962 0)
(-2.39864 0.366464 -4.47738e-20)
(-2.59716 0.37612 -4.53403e-20)
(-2.79905 0.383812 -4.61208e-20)
(-3.00314 0.38948 2.33574e-20)
(-3.20831 0.393121 -2.43205e-20)
(-3.41352 0.394787 -7.46932e-20)
(-3.61779 0.394572 5.1294e-20)
(-3.82025 0.392604 2.65787e-20)
(-4.02015 0.389037 0)
(-4.21682 0.384039 -2.84953e-20)
(-4.4097 0.377785 2.96348e-20)
(-4.59836 0.370451 0)
(-4.78242 0.362206 0)
(-4.96159 0.353211 0)
(-5.13568 0.343614 -3.42871e-20)
(-5.30452 0.333551 0)
(-5.46803 0.323141 7.39724e-20)
(-5.62615 0.31249 0)
(-5.77885 0.301689 7.92181e-20)
(-5.92616 0.290817 0)
(-6.0681 0.279939 -8.44699e-20)
(-6.20474 0.26911 0)
(-6.33613 0.258378 8.96588e-20)
(-6.46237 0.24778 -4.62659e-20)
(-6.58353 0.237346 0)
(-6.69971 0.227098 -9.72052e-20)
(-6.81101 0.217056 -4.96673e-20)
(-6.91752 0.207232 -5.08616e-20)
(-7.01934 0.197636 0)
(-7.11657 0.188275 -5.34454e-20)
(-7.20931 0.179155 -5.42761e-20)
(-7.29765 0.170276 0)
(-7.3817 0.161641 5.63972e-20)
(-7.46153 0.153251 -1.15067e-19)
(-7.53724 0.145107 0)
(-7.6089 0.137205 -5.93296e-20)
(-7.6766 0.129544 0)
(-7.7404 0.122116 1.83563e-19)
(-7.80038 0.114917 0)
(-7.8566 0.107932 -1.88487e-19)
(-7.90912 0.101148 -6.35407e-20)
(-7.95801 0.0945458 6.44371e-20)
(-8.00331 0.0881067 1.30256e-19)
(-8.04508 0.0818062 -1.31573e-19)
(-8.08335 0.075623 0)
(-8.11816 0.0695316 0)
(-8.14953 0.0635154 0)
(-8.17755 0.057554 4.0796e-19)
(-8.20231 0.0516352 1.36833e-19)
(-8.22394 0.0457523 -1.37714e-19)
(-8.24254 0.0399079 0)
(-8.2583 0.0341076 -1.39672e-19)
(-8.27143 0.0283714 1.39913e-19)
(-8.28214 0.0227291 1.40491e-19)
(-8.29065 0.0172501 0)
(-8.29698 0.0120345 0)
(-8.30053 0.00709619 0)
(-8.30067 0.00233633 1.41576e-19)
(-8.29729 -0.00233932 0)
(-8.29031 -0.00698388 -2.83357e-19)
(-8.27968 -0.0116199 -4.24527e-19)
(-8.2653 -0.0162677 2.82693e-19)
(-8.24708 -0.0209318 0)
(-8.22491 -0.0256342 1.4083e-19)
(-8.19868 -0.0303793 0)
(-8.16826 -0.0351983 2.79418e-19)
(-8.13352 -0.0400992 -1.39227e-19)
(-8.0943 -0.0451195 -1.38516e-19)
(-8.05041 -0.0502703 0)
(-8.00166 -0.0555953 -4.09889e-19)
(-7.94779 -0.0611082 2.71369e-19)
(-7.88855 -0.0668577 1.34443e-19)
(-7.82363 -0.0728593 0)
(-7.75269 -0.0791627 1.31932e-19)
(-7.67536 -0.0857797 3.91873e-19)
(-7.59122 -0.0927536 0)
(-7.49985 -0.100095 2.5498e-19)
(-7.4008 -0.107842 2.5139e-19)
(-7.29359 -0.11599 2.47506e-19)
(-7.17771 -0.124554 0)
(-7.05261 -0.133495 0)
(-6.91774 -0.142806 0)
(-6.77257 -0.152421 -1.14433e-19)
(-6.61663 -0.162313 -1.10682e-19)
(-6.44948 -0.172389 0)
(-6.27078 -0.182591 -2.07789e-19)
(-6.08028 -0.192796 -1.99343e-19)
(-5.87784 -0.202911 0)
(-5.66344 -0.212786 -1.78056e-19)
(-5.43724 -0.222295 -3.34761e-19)
(-5.19955 -0.231271 1.52661e-19)
(-4.9509 -0.239568 1.40997e-19)
(-4.69197 -0.247016 0)
(-4.42366 -0.253467 0)
(-4.14705 -0.258776 0)
(-3.86338 -0.262822 6.28856e-20)
(-3.57405 -0.265504 -4.4392e-20)
(-3.28053 -0.266755 -3.67868e-20)
(-2.98436 -0.266546 -8.9797e-21)
(-2.68711 -0.264898 3.14214e-20)
(-2.39033 -0.261882 6.31792e-20)
(-2.09549 -0.257614 0)
(-1.80396 -0.252256 0)
(-1.51697 -0.246015 -1.47643e-19)
(-1.23552 -0.23913 0)
(-0.96046 -0.231822 0)
(-0.692462 -0.224349 4.88256e-19)
(-0.431915 -0.217272 0)
(-0.177433 -0.211334 2.99703e-19)
(0.0718036 -0.205565 -3.11613e-19)
(0.312433 -0.19775 0)
(0.542374 -0.187851 3.00133e-19)
(0.762043 -0.177126 0)
(0.971237 -0.166317 0)
(1.16979 -0.155721 -2.88487e-19)
(1.35771 -0.14548 5.6308e-19)
(1.53517 -0.135662 -2.77103e-19)
(1.7024 -0.1263 0)
(1.8597 -0.117407 0)
(2.00741 -0.10898 2.58025e-19)
(2.14586 -0.101009 0)
(2.27542 -0.093478 2.47423e-19)
(2.39645 -0.0863653 0)
(2.50928 -0.0796463 0)
(2.61424 -0.0732931 0)
(2.71164 -0.0672745 2.29708e-19)
(2.80175 -0.0615553 0)
(2.8848 -0.0560949 -2.21568e-19)
(2.96097 -0.0508447 0)
(3.03037 -0.0457428 0)
(3.09304 -0.0407048 4.22326e-19)
(3.14882 -0.0356062 -4.16983e-19)
(3.19743 -0.03024 0)
(3.23795 -0.0242278 0)
(3.26973 -0.0166113 0)
(3.28784 -0.00510467 1.21544e-18)
(3.30364 0.0183755 0)
(3.27826 0.0571378 -7.95426e-19)
(0.00898569 -0.060809 -7.76181e-23)
(0.0136067 -0.0603738 4.96975e-20)
(0.0232104 -0.0583932 0)
(0.0324925 -0.0552588 -5.0017e-20)
(0.0408412 -0.0509729 0)
(0.0481881 -0.0455783 0)
(0.0544024 -0.0391437 2.91365e-23)
(0.0592727 -0.0317446 2.54962e-20)
(0.0625776 -0.0234586 2.56236e-20)
(0.0641083 -0.0143645 2.58212e-20)
(0.0636658 -0.00453886 0)
(0.0610553 0.00594784 0)
(0.0560828 0.0170388 -2.62891e-20)
(0.0485526 0.0286894 -5.29175e-20)
(0.0382642 0.0408715 5.32946e-20)
(0.0250055 0.053578 0)
(0.0085497 0.0668268 5.40662e-20)
(-0.0113525 0.0806614 -2.70847e-20)
(-0.0349821 0.0951504 0)
(-0.0626484 0.110381 5.37543e-20)
(-0.0946994 0.126458 2.67506e-20)
(-0.131524 0.143502 -5.31036e-20)
(-0.173558 0.161643 -2.63565e-20)
(-0.221282 0.181017 0)
(-0.275224 0.201755 5.1583e-20)
(-0.335944 0.223977 5.09294e-20)
(-0.404031 0.247778 0)
(-0.480081 0.27322 4.94186e-20)
(-0.564679 0.300316 0)
(-0.658366 0.329022 4.76886e-20)
(-0.761607 0.35922 2.34321e-20)
(-0.87476 0.39071 0)
(-0.998032 0.423199 0)
(-1.13145 0.456304 0)
(-1.27485 0.489553 0)
(-1.42783 0.522403 0)
(-1.58979 0.554262 0)
(-1.75991 0.584524 4.14696e-20)
(-1.93723 0.612596 -6.16883e-20)
(-2.12062 0.637942 0)
(-2.3089 0.660105 0)
(-2.50083 0.678732 0)
(-2.6952 0.693589 -6.03419e-22)
(-2.89083 0.704561 4.20764e-20)
(-3.08664 0.71165 8.6718e-20)
(-3.28163 0.714959 -8.89926e-20)
(-3.47495 0.714681 -4.63725e-20)
(-3.66586 0.711075 4.68128e-20)
(-3.85375 0.704446 1.23069e-21)
(-4.03811 0.695129 5.16727e-20)
(-4.21857 0.68347 0)
(-4.39482 0.669814 5.59794e-20)
(-4.56664 0.654492 1.40747e-21)
(-4.73389 0.637814 0)
(-4.89649 0.620063 0)
(-5.05437 0.601495 -6.58812e-20)
(-5.20752 0.582335 0)
(-5.35595 0.562778 0)
(-5.4997 0.542993 7.53064e-20)
(-5.6388 0.523124 1.53436e-19)
(-5.77331 0.50329 -7.82093e-20)
(-5.90329 0.483588 0)
(-6.0288 0.4641 8.37971e-20)
(-6.14991 0.444888 0)
(-6.26668 0.426003 9.15189e-20)
(-6.37919 0.407487 9.2032e-20)
(-6.4875 0.389369 -1.91444e-19)
(-6.59168 0.371672 -9.92814e-20)
(-6.6918 0.354409 0)
(-6.78791 0.337588 2.06678e-19)
(-6.8801 0.321212 0)
(-6.96841 0.305281 3.23618e-19)
(-7.05291 0.289791 2.20901e-19)
(-7.13366 0.274732 2.25389e-19)
(-7.21072 0.260097 -2.29743e-19)
(-7.28416 0.245875 3.50265e-19)
(-7.35401 0.232056 0)
(-7.42035 0.218628 0)
(-7.48321 0.20558 -2.45752e-19)
(-7.54266 0.1929 -3.73518e-19)
(-7.59873 0.180579 0)
(-7.65149 0.168605 1.27594e-19)
(-7.70098 0.156969 0)
(-7.74724 0.145659 -3.93211e-19)
(-7.79032 0.134666 8.6309e-22)
(-7.83026 0.123975 -8.09828e-22)
(-7.86709 0.113576 2.7069e-19)
(-7.90082 0.103449 0)
(-7.93148 0.093579 -2.75469e-19)
(-7.9591 0.0839432 6.52532e-22)
(-7.98374 0.0745207 0)
(-8.00542 0.0652915 0)
(-8.02413 0.0562355 0)
(-8.03985 0.0473356 2.8424e-19)
(-8.05254 0.0385746 0)
(-8.06212 0.0299389 0)
(-8.06851 0.0214053 0)
(-8.07161 0.0129233 0)
(-8.07133 0.00446885 0)
(-8.06762 -0.00393796 2.8946e-19)
(-8.06043 -0.0122965 0)
(-8.04969 -0.0206265 2.88915e-19)
(-8.03534 -0.0289538 2.88653e-19)
(-8.01729 -0.0372969 -2.88231e-19)
(-7.99544 -0.0456798 0)
(-7.96969 -0.0541245 -2.86888e-19)
(-7.93992 -0.0626639 0)
(-7.90603 -0.0713308 -2.84855e-19)
(-7.86787 -0.0801665 2.83569e-19)
(-7.82529 -0.0892118 8.47078e-19)
(-7.77813 -0.0985146 0)
(-7.72617 -0.108123 8.36481e-19)
(-7.6692 -0.11809 2.77259e-19)
(-7.60694 -0.128471 0)
(-7.53912 -0.13932 5.44267e-19)
(-7.46541 -0.150692 5.38859e-19)
(-7.38542 -0.162634 -7.99064e-19)
(-7.29877 -0.175193 0)
(-7.20505 -0.188411 -2.59396e-19)
(-7.1038 -0.202326 -2.55632e-19)
(-6.99457 -0.216949 -7.55704e-19)
(-6.87685 -0.232275 0)
(-6.75009 -0.248264 0)
(-6.61375 -0.264866 0)
(-6.4673 -0.282001 -2.32642e-19)
(-6.31026 -0.299578 0)
(-6.14222 -0.317463 0)
(-5.96281 -0.335505 2.1009e-19)
(-5.77178 -0.353509 2.01356e-19)
(-5.56897 -0.371264 0)
(-5.35437 -0.388515 0)
(-5.12812 -0.405005 3.37105e-19)
(-4.89055 -0.420439 0)
(-4.64216 -0.434534 -2.80185e-19)
(-4.38366 -0.446995 -2.50129e-19)
(-4.11595 -0.457556 0)
(-3.84014 -0.46597 0)
(-3.55749 -0.472037 1.32879e-19)
(-3.2694 -0.475606 -2.85779e-21)
(-2.97739 -0.476586 -2.74698e-21)
(-2.683 -0.474966 0)
(-2.38781 -0.470811 -1.31386e-19)
(-2.09336 -0.464279 0)
(-1.8011 -0.455586 0)
(-1.51237 -0.445025 0)
(-1.22831 -0.43293 2.99728e-19)
(-0.949878 -0.419737 0)
(-0.677653 -0.405777 -8.45274e-19)
(-0.412438 -0.391755 -4.90294e-19)
(-0.152354 -0.378717 0)
(0.102824 -0.366505 -5.56875e-19)
(0.348442 -0.353454 0)
(0.582431 -0.338383 0)
(0.805479 -0.321496 -1.65324e-18)
(1.018 -0.30375 1.09182e-18)
(1.22006 -0.285857 0)
(1.41167 -0.268217 1.06669e-18)
(1.59293 -0.251055 -5.27171e-19)
(1.76403 -0.234503 0)
(1.92522 -0.218634 0)
(2.0768 -0.203487 0)
(2.21909 -0.189074 -1.47552e-18)
(2.35242 -0.175391 0)
(2.47715 -0.16242 -4.74827e-19)
(2.59361 -0.150134 0)
(2.70214 -0.138497 0)
(2.80304 -0.127469 0)
(2.8966 -0.116999 0)
(2.98309 -0.107032 0)
(3.06272 -0.0975002 0)
(3.13567 -0.0883231 -8.43167e-19)
(3.20204 -0.0793963 0)
(3.26185 -0.0705773 -4.11023e-19)
(3.31499 -0.061658 1.21837e-18)
(3.36121 -0.0522987 0)
(3.39977 -0.0419137 0)
(3.43029 -0.0292344 -7.93985e-19)
(3.44902 -0.012173 -7.94221e-19)
(3.46324 0.0173933 7.85126e-19)
(3.45382 0.0666444 7.76508e-19)
(0.00720098 -0.0787866 -1.23174e-19)
(0.0106621 -0.0780167 -7.43379e-20)
(0.0179591 -0.0751469 -4.97136e-20)
(0.0248617 -0.0706823 -2.49391e-20)
(0.0308649 -0.0646236 0)
(0.0358381 -0.0570263 5.04453e-20)
(0.0396246 -0.047979 -2.53435e-20)
(0.0420091 -0.0375775 0)
(0.0427641 -0.0259194 -2.57514e-20)
(0.0416701 -0.0131007 0)
(0.0385137 0.000788323 5.22371e-20)
(0.0330819 0.015672 0)
(0.0251575 0.0314908 2.64496e-20)
(0.0145164 0.0482056 5.32476e-20)
(0.000925035 0.0658029 -5.34505e-20)
(-0.0158718 0.0843027 0)
(-0.0361486 0.103756 -5.32721e-20)
(-0.0602059 0.124243 0)
(-0.0883773 0.145879 0)
(-0.121033 0.168807 -5.24486e-20)
(-0.158586 0.193194 0)
(-0.201491 0.219227 1.36332e-22)
(-0.250243 0.2471 0)
(-0.305375 0.277001 0)
(-0.367446 0.3091 -1.78909e-22)
(-0.437023 0.34353 -4.88056e-20)
(-0.514667 0.380365 -4.77342e-20)
(-0.600897 0.4196 -4.70322e-20)
(-0.696165 0.461135 0)
(-0.800814 0.504749 -8.99173e-20)
(-0.915046 0.550089 0)
(-1.03888 0.596667 -4.28421e-20)
(-1.17213 0.643857 0)
(-1.3144 0.690916 0)
(-1.46506 0.737015 4.02867e-20)
(-1.62327 0.78128 0)
(-1.78804 0.822839 -3.91948e-20)
(-1.95825 0.86088 1.10405e-23)
(-2.13269 0.894689 7.75247e-20)
(-2.31015 0.923697 -7.78941e-20)
(-2.48945 0.947498 0)
(-2.66948 0.965863 0)
(-2.84926 0.978736 -4.13227e-20)
(-3.02792 0.986217 0)
(-3.20473 0.988542 -4.20232e-20)
(-3.37912 0.986053 4.33521e-20)
(-3.55062 0.97917 4.48893e-20)
(-3.7189 0.968358 0)
(-3.88372 0.954107 -4.85416e-20)
(-4.04492 0.936907 -5.06285e-20)
(-4.20241 0.91723 1.08645e-19)
(-4.35612 0.895521 -5.52462e-20)
(-4.50605 0.872188 -5.77444e-20)
(-4.65221 0.847596 0)
(-4.7946 0.822067 0)
(-4.93326 0.795884 6.58035e-20)
(-5.06821 0.769285 0)
(-5.19948 0.742473 0)
(-5.3271 0.715619 -1.48791e-19)
(-5.45108 0.688864 -1.5463e-19)
(-5.57144 0.662325 0)
(-5.6882 0.636095 0)
(-5.80139 0.61025 0)
(-5.911 0.58485 0)
(-6.01707 0.559939 -1.83682e-19)
(-6.11959 0.535554 1.91721e-19)
(-6.21859 0.511719 1.94927e-19)