/*--------------------------------*- C++ -*----------------------------------*\
| =========                 |                                                 |
| \\      /  F ield         | OpenFOAM: The Open Source CFD Toolbox           |
|  \\    /   O peration     | Version:  2406                                  |
|   \\  /    A nd           | Website:  www.openfoam.com                      |
|    \\/     M anipulation  |                                                 |
\*---------------------------------------------------------------------------*/
FoamFile
{
    version     2.0;
    format      ascii;
    arch        "LSB;label=32;scalar=64";
    class       volScalarField;
    location    "350";
    object      p;
}
// * * * * * * * * * * * * * * * * * * * * * * * * * * * * * * * * * * * * * //

dimensions      [0 2 -2 0 0 0 0];

internalField   nonuniform List<scalar> 
150000
(
235.962
128.822
71.8322
48.5445
35.1899
26.3769
20.6088
16.6347
13.6861
11.3779
9.50187
7.93176
6.58703
5.41441
4.37702
3.44825
2.60831
1.84206
1.13771
0.485875
-0.121009
-0.689121
-1.22357
-1.72861
-2.20784
-2.6643
-3.1006
-3.51898
-3.92138
-4.3095
-4.6848
-5.04861
-5.40206
-5.74618
-6.08188
-6.40997
-6.73119
-7.04618
-7.35556
-7.65984
-7.95954
-8.25509
-8.5469
-8.83535
-9.12079
-9.40353
-9.68388
-9.9621
-10.2385
-10.5132
-10.7865
-11.0587
-11.3298
-11.6002
-11.8699
-12.1393
-12.4083
-12.6772
-12.9462
-13.2154
-13.4849
-13.755
-14.0257
-14.2971
-14.5696
-14.843
-15.1178
-15.3939
-15.6715
-15.9509
-16.2321
-16.5153
-16.8007
-17.0886
-17.379
-17.6722
-17.9684
-18.2679
-18.5709
-18.8778
-19.1887
-19.504
-19.8241
-20.1495
-20.4805
-20.8176
-21.1615
-21.5127
-21.8719
-22.24
-22.6177
-23.0062
-23.4068
-23.8219
-24.2564
-24.7228
-25.247
-25.8535
-26.6126
-28.4746
135.128
95.5013
65.9072
49.3263
37.9095
29.4613
23.4211
19.0322
15.6948
13.0613
10.9237
9.14537
7.63415
6.3271
5.17986
4.16026
3.24433
2.41382
1.6546
0.955498
0.307573
-0.29643
-0.862468
-1.39548
-1.89961
-2.37835
-2.83467
-3.27111
-3.68988
-4.09287
-4.48176
-4.85799
-5.22284
-5.57746
-5.92285
-6.2599
-6.58943
-6.91215
-7.22872
-7.53972
-7.8457
-8.14713
-8.44447
-8.73811
-9.02845
-9.31581
-9.60052
-9.88287
-10.1631
-10.4416
-10.7185
-10.994
-11.2684
-11.5418
-11.8145
-12.0867
-12.3585
-12.63
-12.9015
-13.1732
-13.4451
-13.7174
-13.9903
-14.264
-14.5386
-14.8142
-15.091
-15.3691
-15.6488
-15.9301
-16.2133
-16.4985
-16.786
-17.0759
-17.3683
-17.6636
-17.962
-18.2637
-18.569
-18.8783
-19.1917
-19.5097
-19.8327
-20.1612
-20.4956
-20.8365
-21.1847
-21.5408
-21.9058
-22.2808
-22.6673
-23.0671
-23.4826
-23.9178
-24.3789
-24.8773
-25.4302
-26.064
-26.8806
-28.2402
86.6026
75.3701
60.7216
48.579
38.966
31.3393
25.463
20.9484
17.4059
14.5629
12.2356
10.2937
8.64424
7.22086
5.97558
4.8729
3.8861
2.99473
2.18286
1.43792
0.749825
0.110416
-0.487002
-1.04797
-1.57711
-2.07834
-2.55495
-3.00978
-3.44527
-3.86351
-4.26635
-4.65538
-5.03202
-5.39751
-5.75295
-6.09933
-6.43751
-6.7683
-7.09239
-7.41042
-7.72298
-8.03059
-8.33373
-8.63283
-8.92832
-9.22054
-9.50985
-9.79657
-10.081
-10.3634
-10.644
-10.9231
-11.2009
-11.4776
-11.7534
-12.0285
-12.3032
-12.5775
-12.8517
-13.1259
-13.4003
-13.6751
-13.9503
-14.2263
-14.5031
-14.7809
-15.0598
-15.3401
-15.6218
-15.9052
-16.1905
-16.4778
-16.7673
-17.0592
-17.3537
-17.6511
-17.9516
-18.2555
-18.5631
-18.8747
-19.1905
-19.5111
-19.8369
-20.1682
-20.5058
-20.8502
-21.2022
-21.5627
-21.9328
-22.3138
-22.7075
-23.1162
-23.5429
-23.992
-24.4695
-24.9839
-25.5453
-26.1639
-26.8593
-27.6601
65.9685
62.3239
54.1009
45.3338
37.753
31.3827
26.1323
21.8677
18.3944
15.5349
13.152
11.14
9.41844
7.92659
6.61858
5.45947
4.42234
3.48619
2.63451
1.85411
1.13437
0.466619
-0.156249
-0.740148
-1.29002
-1.81005
-2.30376
-2.77419
-3.22395
-3.65529
-4.07017
-4.47031
-4.85721
-5.2322
-5.59647
-5.95105
-6.29688
-6.6348
-6.96557
-7.28986
-7.60828
-7.92141
-8.22974
-8.53375
-8.83385
-9.13045
-9.4239
-9.71454
-10.0027
-10.2886
-10.5726
-10.8549
-11.1358
-11.4154
-11.694
-11.9719
-12.2491
-12.5259
-12.8025
-13.079
-13.3556
-13.6325
-13.9099
-14.1879
-14.4666
-14.7464
-15.0272
-15.3093
-15.5928
-15.878
-16.165
-16.454
-16.7451
-17.0387
-17.335
-17.6341
-17.9363
-18.2419
-18.5511
-18.8644
-19.1821
-19.5045
-19.8321
-20.1654
-20.505
-20.8516
-21.2058
-21.5687
-21.9414
-22.3251
-22.7216
-23.1329
-23.5616
-24.0107
-24.4838
-24.984
-25.5121
-26.062
-26.6139
-27.1235
53.3162
51.9867
47.3244
41.3658
35.6713
30.5461
26.0481
22.1967
18.9344
16.1693
13.814
11.7933
10.0445
8.5172
7.17091
5.9737
4.90015
3.92996
3.04686
2.23765
1.49158
0.79981
0.155027
-0.448881
-1.01705
-1.55382
-2.0629
-2.54745
-3.01021
-3.45355
-3.87952
-4.28993
-4.68636
-5.07022
-5.44274
-5.80502
-6.15805
-6.50271
-6.83979
-7.17001
-7.49401
-7.81239
-8.12567
-8.43435
-8.73887
-9.03964
-9.33705
-9.63145
-9.92315
-10.2125
-10.4997
-10.7851
-11.0689
-11.3513
-11.6326
-11.913
-12.1927
-12.4718
-12.7507
-13.0294
-13.3081
-13.587
-13.8663
-14.1462
-14.4267
-14.7082
-14.9907
-15.2744
-15.5596
-15.8463
-16.1348
-16.4253
-16.7179
-17.0129
-17.3105
-17.6109
-17.9144
-18.2213
-18.5318
-18.8463
-19.1651
-19.4886
-19.8173
-20.1516
-20.4921
-20.8395
-21.1943
-21.5576
-21.9302
-22.3132
-22.7081
-23.1161
-23.5388
-23.9774
-24.4323
-24.9019
-25.3803
-25.8527
-26.2905
-26.6454
44.6175
44.1687
41.5004
37.5072
33.2921
29.2365
25.4776
22.1024
19.1306
16.5339
14.2683
12.288
10.5499
9.01558
7.65253
6.43346
5.3358
4.34099
3.4337
2.60131
1.83333
1.12104
0.457127
-0.164548
-0.749191
-1.30123
-1.82446
-2.32213
-2.79706
-3.2517
-3.68818
-4.10838
-4.51394
-4.90632
-5.2868
-5.65653
-6.01654
-6.36775
-6.71099
-7.047
-7.37646
-7.69997
-8.01811
-8.33138
-8.64023
-8.94512
-9.24642
-9.54451
-9.83973
-10.1324
-10.4228
-10.7112
-10.9978
-11.283
-11.5669
-11.8498
-12.1319
-12.4133
-12.6944
-12.9751
-13.2559
-13.5367
-13.8178
-14.0995
-14.3817
-14.6648
-14.9488
-15.234
-15.5206
-15.8087
-16.0985
-16.3902
-16.684
-16.9801
-17.2787
-17.5801
-17.8845
-18.1922
-18.5034
-18.8186
-19.1379
-19.4618
-19.7907
-20.125
-20.4652
-20.8118
-21.1656
-21.5271
-21.897
-22.2762
-22.6653
-23.065
-23.4756
-23.8964
-24.3255
-24.7581
-25.1846
-25.588
-25.9412
-26.2055
38.434
38.3058
36.6903
33.9584
30.8338
27.6514
24.5613
21.6683
19.0272
16.6491
14.5223
12.6253
10.9331
9.42001
8.06223
6.83837
5.72981
4.72055
3.79698
2.94753
2.16242
1.43334
0.753254
0.116147
-0.483116
-1.04894
-1.58513
-2.09497
-2.58131
-3.04664
-3.49314
-3.92272
-4.33708
-4.73771
-5.12595
-5.50297
-5.86983
-6.22749
-6.5768
-6.91854
-7.2534
-7.58203
-7.90499
-8.22282
-8.536
-8.84498
-9.15017
-9.45194
-9.75065
-10.0466
-10.3402
-10.6316
-10.9211
-11.209
-11.4955
-11.7809
-12.0653
-12.3489
-12.6321
-12.9149
-13.1975
-13.4802
-13.7631
-14.0464
-14.3302
-14.6147
-14.9002
-15.1867
-15.4745
-15.7638
-16.0546
-16.3473
-16.642
-16.9389
-17.2382
-17.5402
-17.8451
-18.1531
-18.4645
-18.7797
-19.0988
-19.4222
-19.7504
-20.0836
-20.4222
-20.7667
-21.1176
-21.4753
-21.8401
-22.2124
-22.5925
-22.9799
-23.374
-23.7728
-24.1727
-24.5671
-24.9455
-25.2918
-25.5833
-25.7922
33.7873
33.7581
32.7096
30.7866
28.4502
25.955
23.4344
20.9881
18.6817
16.5459
14.5893
12.8081
11.1916
9.72558
8.3946
7.1835
6.07813
5.06565
4.13468
3.27521
2.47852
1.73706
1.04427
0.39448
-0.217223
-0.795108
-1.34289
-1.86381
-2.36069
-2.83603
-3.29201
-3.73057
-4.15341
-4.56205
-4.95786
-5.34202
-5.71564
-6.07969
-6.43504
-6.78249
-7.12275
-7.45649
-7.78429
-8.10671
-8.42424
-8.73735
-9.04645
-9.35193
-9.65417
-9.95349
-10.2502
-10.5446
-10.837
-11.1276
-11.4167
-11.7045
-11.9913
-12.2772
-12.5624
-12.8472
-13.1317
-13.4161
-13.7007
-13.9855
-14.2708
-14.5567
-14.8434
-15.1311
-15.4199
-15.7101
-16.0018
-16.2952
-16.5905
-16.8879
-17.1876
-17.4898
-17.7947
-18.1025
-18.4136
-18.7281
-19.0463
-19.3684
-19.6949
-20.0259
-20.3617
-20.7027
-21.0491
-21.401
-21.7586
-22.1218
-22.4901
-22.8626
-23.2377
-23.6126
-23.9827
-24.341
-24.6773
-24.9777
-25.2246
-25.3986
30.1229
30.119
29.3958
28.0011
26.2285
24.2605
22.2055
20.1497
18.1566
16.2641
14.4914
12.8458
11.3267
9.92876
8.64365
7.46193
6.37386
5.36994
4.44128
3.57973
2.77793
2.02931
1.32805
0.668998
0.0476073
-0.540122
-1.09772
-1.62829
-2.13458
-2.61902
-3.08377
-3.53073
-3.96161
-4.37793
-4.78104
-5.17217
-5.55241
-5.92275
-6.28408
-6.63721
-6.98287
-7.32173
-7.6544
-7.98144
-8.30337
-8.62064
-8.9337
-9.24295
-9.54875
-9.85147
-10.1514
-10.4489
-10.7442
-11.0375
-11.3292
-11.6195
-11.9086
-12.1966
-12.4839
-12.7707
-13.057
-13.3432
-13.6293
-13.9156
-14.2022
-14.4894
-14.7772
-15.0659
-15.3556
-15.6466
-15.9389
-16.2328
-16.5284
-16.826
-17.1256
-17.4276
-17.7321
-18.0392
-18.3493
-18.6625
-18.9791
-19.2992
-19.6231
-19.9509
-20.2828
-20.6189
-20.9594
-21.3041
-21.6527
-22.0049
-22.3598
-22.7159
-23.071
-23.4218
-23.7634
-24.0891
-24.3897
-24.6539
-24.8684
-25.0198
27.1357
27.136
26.6112
25.5689
24.1998
22.6322
20.9499
19.2237
17.51
15.8467
14.2574
12.7553
11.3462
10.0308
8.80641
7.66816
6.61021
5.62618
4.70964
3.85438
3.05454
2.30471
1.59993
0.935721
0.308047
-0.286717
-0.851811
-1.39013
-1.90428
-2.39655
-2.86902
-3.32355
-3.76179
-4.18524
-4.59524
-4.99299
-5.37959
-5.75603
-6.12319
-6.4819
-6.83288
-7.17683
-7.51435
-7.84602
-8.17234
-8.49381
-8.81086
-9.1239
-9.43332
-9.73946
-10.0427
-10.3432
-10.6414
-10.9376
-11.2319
-11.5246
-11.816
-12.1063
-12.3957
-12.6843
-12.9724
-13.2602
-13.5479
-13.8356
-14.1235
-14.4118
-14.7006
-14.9901
-15.2806
-15.5721
-15.8648
-16.1589
-16.4546
-16.752
-17.0512
-17.3526
-17.6562
-17.9622
-18.2708
-18.5822
-18.8964
-19.2137
-19.5342
-19.8579
-20.1849
-20.5151
-20.8485
-21.1847
-21.5233
-21.8634
-22.2039
-22.543
-22.8781
-23.2058
-23.5213
-23.8184
-24.0894
-24.3251
-24.5157
-24.6521
24.6416
24.6406
24.2437
23.4429
22.3658
21.1024
19.7158
18.2627
16.7906
15.3346
13.9187
12.5588
11.2641
10.0392
8.88516
7.80082
6.78333
5.82896
4.93352
4.0926
3.30183
2.55697
1.85402
1.18925
0.559212
-0.0392539
-0.609026
-1.15272
-1.6727
-2.17112
-2.64991
-3.11083
-3.55545
-3.98522
-4.40142
-4.80524
-5.19775
-5.57991
-5.95261
-6.31666
-6.67279
-7.02168
-7.36394
-7.70015
-8.03082
-8.35645
-8.67747
-8.9943
-9.30732
-9.61689
-9.92335
-10.227
-10.5282
-10.8271
-11.124
-11.4192
-11.7129
-12.0054
-12.2968
-12.5873
-12.8772
-13.1666
-13.4557
-13.7447
-14.0338
-14.3231
-14.6128
-14.903
-15.194
-15.4859
-15.7787
-16.0728
-16.3683
-16.6652
-16.9638
-17.2642
-17.5665
-17.8709
-18.1775
-18.4864
-18.7978
-19.1116
-19.4279
-19.7468
-20.0681
-20.3916
-20.7171
-21.044
-21.3717
-21.6992
-22.025
-22.3472
-22.6631
-22.9693
-23.2615
-23.534
-23.7806
-23.994
-24.167
-24.2931
22.5205
22.5176
22.2076
21.5771
20.7147
19.6838
18.5315
17.3024
16.0359
14.7625
13.505
12.2798
11.0978
9.96566
8.88704
7.86311
6.89337
5.97621
5.10925
4.28968
3.51445
2.78047
2.08465
1.42402
0.795769
0.197235
-0.374047
-0.920361
-1.44381
-1.94632
-2.42966
-2.89545
-3.34516
-3.78013
-4.2016
-4.61069
-5.00843
-5.39574
-5.7735
-6.14249
-6.50342
-6.85697
-7.20374
-7.5443
-7.87916
-8.20881
-8.5337
-8.85423
-9.17079
-9.48374
-9.79342
-10.1001
-10.4042
-10.7058
-11.0054
-11.303
-11.599
-11.8936
-12.187
-12.4794
-12.7709
-13.0619
-13.3524
-13.6426
-13.9327
-14.2229
-14.5133
-14.8041
-15.0955
-15.3875
-15.6804
-15.9742
-16.2691
-16.5653
-16.8629
-17.162
-17.4626
-17.765
-18.0692
-18.3752
-18.6831
-18.9929
-19.3046
-19.6179
-19.9329
-20.2491
-20.5661
-20.8833
-21.1998
-21.5145
-21.8259
-22.1318
-22.4298
-22.7165
-22.9881
-23.2398
-23.4664
-23.6623
-23.822
-23.9412
20.6907
20.6865
20.4381
19.9312
19.2293
18.3779
17.4119
16.3662
15.2727
14.1577
13.0419
11.9408
10.8657
9.82459
8.82236
7.86184
6.94417
6.06928
5.23624
4.44353
3.68925
2.97128
2.2874
1.63535
1.01292
0.417963
-0.151557
-0.697572
-1.22189
-1.72621
-2.21208
-2.68097
-3.1342
-3.57302
-3.99857
-4.41189
-4.81395
-5.20564
-5.58777
-5.9611
-6.32633
-6.6841
-7.035
-7.37959
-7.71836
-8.0518
-8.38034
-8.7044
-9.02434
-9.34053
-9.65331
-9.96298
-10.2698
-10.5742
-10.8762
-11.1762
-11.4744
-11.7711
-12.0664
-12.3605
-12.6537
-12.946
-13.2378
-13.5291
-13.8202
-14.1112
-14.4022
-14.6934
-14.9849
-15.2769
-15.5695
-15.8629
-16.1571
-16.4523
-16.7485
-17.046
-17.3446
-17.6446
-17.946
-18.2487
-18.5527
-18.8581
-19.1646
-19.4721
-19.7803
-20.0888
-20.397
-20.7043
-21.0096
-21.3118
-21.6092
-21.8999
-22.1814
-22.4507
-22.7044
-22.9386
-23.1489
-23.331
-23.4809
-23.5953
19.0941
19.0892
18.8862
18.4711
17.8915
17.1801
16.3631
15.4675
14.5193
13.5407
12.5498
11.5608
10.5849
9.63034
8.70273
7.80588
6.94204
6.11223
5.31661
4.55466
3.82541
3.12756
2.45964
1.82002
1.20705
0.619066
0.054442
-0.488404
-1.01098
-1.51473
-2.001
-2.47106
-2.9261
-3.36723
-3.79548
-4.21181
-4.61711
-5.01221
-5.39786
-5.77479
-6.14365
-6.50504
-6.85955
-7.2077
-7.54998
-7.88685
-8.21872
-8.54602
-8.8691
-9.18831
-9.50398
-9.81642
-10.1259
-10.4328
-10.7372
-11.0394
-11.3397
-11.6383
-11.9354
-12.2312
-12.5258
-12.8195
-13.1124
-13.4047
-13.6966
-13.9882
-14.2796
-14.5711
-14.8626
-15.1544
-15.4466
-15.7393
-16.0325
-16.3264
-16.6211
-16.9166
-17.213
-17.5103
-17.8085
-18.1076
-18.4074
-18.708
-19.009
-19.3103
-19.6115
-19.9121
-20.2115
-20.509
-20.8034
-21.0935
-21.3778
-21.6544
-21.921
-22.175
-22.4133
-22.6327
-22.8297
-23.001
-23.1435
-23.2548
17.6878
17.6828
17.514
17.1689
16.6838
16.083
15.386
14.6139
13.7877
12.9259
12.0442
11.1555
10.2701
9.39615
8.53961
7.70479
6.89461
6.11085
5.35444
4.62564
3.92419
3.24946
2.60059
1.9765
1.37604
0.79797
0.241038
-0.296003
-0.814378
-1.31527
-1.79983
-2.26913
-2.7242
-3.16603
-3.59551
-4.01352
-4.42086
-4.81827
-5.20646
-5.5861
-5.95778
-6.32209
-6.67956
-7.03069
-7.37595
-7.71577
-8.05057
-8.38072
-8.70658
-9.0285
-9.34679
-9.66174
-9.97365
-10.2828
-10.5894
-10.8936
-11.1959
-11.4962
-11.7949
-12.0922
-12.3881
-12.683
-12.9769
-13.2701
-13.5626
-13.8546
-14.1463
-14.4378
-14.7292
-15.0206
-15.3121
-15.6039
-15.896
-16.1884
-16.4813
-16.7746
-17.0685
-17.3628
-17.6576
-17.9528
-18.2482
-18.5438
-18.8392
-19.1341
-19.4282
-19.721
-20.0116
-20.2994
-20.5834
-20.8621
-21.1343
-21.398
-21.6513
-21.8918
-22.117
-22.3241
-22.5103
-22.6731
-22.81
-22.9194
16.4396
16.4346
16.2924
16.0017
15.5909
15.0783
14.4787
13.8086
13.085
12.3233
11.5367
10.7369
9.93325
9.13344
8.34345
7.56779
6.80976
6.07165
5.35493
4.66039
3.98834
3.33869
2.71104
2.10481
1.51923
0.953445
0.406546
-0.12242
-0.634412
-1.13038
-1.61127
-2.07798
-2.53138
-2.9723
-3.40155
-3.81988
-4.22799
-4.62657
-5.01625
-5.39762
-5.77125
-6.13766
-6.49736
-6.8508
-7.19842
-7.54064
-7.87783
-8.21037
-8.5386
-8.86283
-9.18337
-9.5005
-9.81451
-10.1256
-10.4341
-10.7402
-11.0441
-11.346
-11.6461
-11.9446
-12.2417
-12.5376
-12.8323
-13.1261
-13.4191
-13.7114
-14.0032
-14.2945
-14.5856
-14.8764
-15.1671
-15.4577
-15.7484
-16.0392
-16.33
-16.621
-16.9121
-17.2033
-17.4945
-17.7856
-18.0764
-18.3668
-18.6565
-18.9451
-19.2322
-19.5171
-19.7993
-20.0779
-20.3519
-20.6201
-20.8811
-21.1332
-21.3747
-21.6035
-21.8175
-22.0144
-22.1918
-22.3478
-22.4806
-22.589
15.3244
15.3197
15.1984
14.9506
14.5989
14.1576
13.6378
13.0525
12.4154
11.7393
11.0356
10.3143
9.58394
8.8517
8.12328
7.40323
6.69501
6.00121
5.32364
4.66351
4.02152
3.398
2.79295
2.20614
1.63715
1.08546
0.550429
0.0313823
-0.472408
-0.961683
-1.43719
-1.89965
-2.34981
-2.78836
-3.21597
-3.6333
-4.04097
-4.43957
-4.82966
-5.21179
-5.58644
-5.95411
-6.31523
-6.67025
-7.01957
-7.36356
-7.70258
-8.03697
-8.36706
-8.69315
-9.01552
-9.33445
-9.65018
-9.96297
-10.273
-10.5806
-10.8859
-11.1891
-11.4904
-11.7899
-12.0879
-12.3845
-12.6799
-12.9741
-13.2673
-13.5597
-13.8514
-14.1424
-14.4329
-14.7229
-15.0126
-15.302
-15.5911
-15.8799
-16.1686
-16.457
-16.7452
-17.0331
-17.3205
-17.6075
-17.8936
-18.1788
-18.4628
-18.7451
-19.0252
-19.3027
-19.5768
-19.8467
-20.1114
-20.3698
-20.6206
-20.8624
-21.0935
-21.3122
-21.5166
-21.7049
-21.8753
-22.026
-22.1558
-22.2637
14.3225
14.318
14.2136
14.0001
13.6963
13.3131
12.8591
12.3446
11.7807
11.1781
10.5464
9.89439
9.22958
8.55853
7.88665
7.21833
6.55709
5.90565
5.26604
4.63975
4.02778
3.43075
2.84897
2.28251
1.73124
1.1949
0.673095
0.165376
-0.328774
-0.809908
-1.2786
-1.73543
-2.18098
-2.61584
-3.04056
-3.45569
-3.86177
-4.2593
-4.64879
-5.03069
-5.40546
-5.77353
-6.13529
-6.49115
-6.84145
-7.18656
-7.5268
-7.86248
-8.19391
-8.52135
-8.84509
-9.16537
-9.48243
-9.7965
-10.1078
-10.4165
-10.7229
-11.0271
-11.3292
-11.6296
-11.9282
-12.2253
-12.521
-12.8154
-13.1087
-13.4009
-13.6923
-13.9828
-14.2725
-14.5616
-14.85
-15.1379
-15.4253
-15.7121
-15.9984
-16.2841
-16.5693
-16.8537
-17.1374
-17.42
-17.7015
-17.9816
-18.2598
-18.536
-18.8094
-19.0797
-19.3461
-19.6078
-19.8639
-20.1134
-20.355
-20.5876
-20.8096
-21.0196
-21.2159
-21.3971
-21.5617
-21.7084
-21.836
-21.944
13.418
13.4139
13.3231
13.1376
12.8727
12.5374
12.1381
11.6832
11.1816
10.6422
10.0733
9.4822
8.87582
8.25998
7.63971
7.01919
6.40186
5.79049
5.18722
4.59372
4.01118
3.44047
2.88211
2.33642
1.8035
1.2833
0.77564
0.280259
-0.203179
-0.675061
-1.13581
-1.58586
-2.02568
-2.45573
-2.87646
-3.28834
-3.69181
-4.0873
-4.47523
-4.85602
-5.23006
-5.59771
-5.95934
-6.3153
-6.66591
-7.01148
-7.35232
-7.68871
-8.02092
-8.34922
-8.67383
-8.99501
-9.31297
-9.62792
-9.94006
-10.2496
-10.5567
-10.8615
-11.1643
-11.465
-11.764
-12.0614
-12.3572
-12.6516
-12.9446
-13.2365
-13.5273
-13.8171
-14.1058
-14.3938
-14.6808
-14.967
-15.2525
-15.5371
-15.8209
-16.1039
-16.3859
-16.6668
-16.9466
-17.225
-17.5018
-17.7768
-18.0495
-18.3197
-18.5867
-18.8502
-19.1093
-19.3634
-19.6116
-19.853
-20.0864
-20.3108
-20.5248
-20.7273
-20.9168
-21.0921
-21.252
-21.3955
-21.5217
-21.6301
12.5983
12.5945
12.5149
12.3523
12.1197
11.8241
11.4706
11.066
10.6177
10.1328
9.61852
9.08122
8.52687
7.96073
7.38741
6.81083
6.23429
5.66052
5.09172
4.52963
3.9756
3.43064
2.89547
2.37057
1.85623
1.35258
0.859611
0.377228
-0.0947519
-0.556572
-1.00852
-1.45092
-1.8841
-2.30844
-2.72429
-3.13202
-3.532
-3.92459
-4.31015
-4.68902
-5.06154
-5.42804
-5.78882
-6.1442
-6.49446
-6.83988
-7.18073
-7.51726
-7.84973
-8.17835
-8.50337
-8.82498
-9.1434
-9.45881
-9.77141
-10.0814
-10.3888
-10.694
-10.997
-11.2979
-11.597
-11.8943
-12.1899
-12.484
-12.7767
-13.068
-13.358
-13.6468
-13.9344
-14.221
-14.5065
-14.7909
-15.0743
-15.3566
-15.6378
-15.9179
-16.1967
-16.4741
-16.75
-17.0241
-17.2963
-17.5663
-17.8337
-18.0981
-18.3591
-18.6161
-18.8685
-19.1155
-19.3565
-19.5905
-19.8166
-20.0337
-20.2408
-20.4368
-20.6205
-20.791
-20.9471
-21.0881
-21.2134
-21.3224
11.8528
11.8493
11.779
11.6354
11.4296
11.1673
10.8525
10.4907
10.0879
9.65032
9.18376
8.69388
8.18585
7.66439
7.13368
6.59735
6.05852
5.51984
4.98349
4.45126
3.92458
3.40455
2.89203
2.38764
1.89181
1.40482
0.926799
0.457786
-0.00226785
-0.453482
-0.896027
-1.33012
-1.75599
-2.17391
-2.58416
-2.98702
-3.38279
-3.77177
-4.15424
-4.5305
-4.90083
-5.26551
-5.62481
-5.97899
-6.3283
-6.67299
-7.0133
-7.34945
-7.68166
-8.01014
-8.33509
-8.6567
-8.97515
-9.29062
-9.60328
-9.91329
-10.2208
-10.5259
-10.8288
-11.1297
-11.4285
-11.7255
-12.0207
-12.3142
-12.6062
-12.8967
-13.1857
-13.4734
-13.7597
-14.0447
-14.3285
-14.611
-14.8922
-15.1721
-15.4506
-15.7277
-16.0032
-16.2771
-16.5491
-16.8191
-17.0868
-17.3519
-17.6142
-17.8731
-18.1284
-18.3793
-18.6254
-18.866
-19.1004
-19.3277
-19.5472
-19.758
-19.959
-20.1494
-20.3283
-20.4946
-20.6477
-20.7869
-20.9115
-21.0214
11.1727
11.1695
11.107
10.9793
10.796
10.5618
10.2799
9.95467
9.59119
9.19457
8.76983
8.3218
7.85504
7.37371
6.8816
6.38204
5.87797
5.3719
4.86595
4.36192
3.86127
3.36518
2.87459
2.39021
1.9126
1.44214
0.979084
0.523583
0.0756968
-0.364586
-0.797336
-1.22267
-1.64074
-2.05172
-2.45582
-2.85326
-3.24425
-3.62903
-4.00784
-4.38091
-4.74848
-5.11078
-5.46803
-5.82047
-6.16832
-6.51177
-6.85104
-7.18632
-7.51781
-7.84569
-8.17014
-8.49133
-8.80942
-9.12457
-9.43693
-9.74663
-10.0538
-10.3586
-10.6612
-10.9615
-11.2599
-11.5563
-11.8508
-12.1436
-12.4346
-12.7241
-13.0119
-13.2983
-13.5831
-13.8664
-14.1483
-14.4287
-14.7076
-14.985
-15.2608
-15.5348
-15.8071
-16.0774
-16.3456
-16.6115
-16.8749
-17.1353
-17.3927
-17.6464
-17.8962
-18.1415
-18.3817
-18.6164
-18.8448
-19.0661
-19.2798
-19.4849
-19.6807
-19.8663
-20.0409
-20.2039
-20.3546
-20.4923
-20.6167
-20.7275
10.5509
10.548
10.492
10.3777
10.2135
10.0031
9.74929
9.45549
9.12599
8.76508
8.37703
7.96603
7.53603
7.09075
6.63358
6.16757
5.69544
5.21956
4.74199
4.26447
3.78847
3.3152
2.84567
2.38067
1.92081
1.46659
1.01834
0.576306
0.140648
-0.288559
-0.711297
-1.1276
-1.53754
-1.94122
-2.33878
-2.73036
-3.11613
-3.49626
-3.87095
-4.24036
-4.6047
-4.96416
-5.31891
-5.66915
-6.01507
-6.35684
-6.69464
-7.02863
-7.35899
-7.68588
-8.00944
-8.32983
-8.6472
-8.96167
-9.27339
-9.58247
-9.88903
-10.1932
-10.4951
-10.7947
-11.0923
-11.3879
-11.6815
-11.9732
-12.2632
-12.5514
-12.8379
-13.1227
-13.4059
-13.6874
-13.9673
-14.2455
-14.522
-14.7968
-15.0697
-15.3407
-15.6097
-15.8765
-16.141
-16.4029
-16.662
-16.918
-17.1706
-17.4195
-17.6641
-17.9041
-18.139
-18.3682
-18.5912
-18.8072
-19.0156
-19.2157
-19.4069
-19.5883
-19.7594
-19.9196
-20.0682
-20.2049
-20.3293
-20.4411
9.9811
9.97842
9.92806
9.82519
9.67715
9.48724
9.25747
8.99082
8.69082
8.36111
8.00535
7.62714
7.22994
6.81703
6.39147
5.95602
5.5132
5.06522
4.61403
4.16134
3.70858
3.25698
2.80756
2.36117
1.9185
1.48008
1.04634
0.6176
0.19409
-0.224036
-0.636686
-1.04382
-1.44544
-1.84159
-2.23234
-2.61777
-2.998
-3.37315
-3.74335
-4.10875
-4.46949
-4.82572
-5.1776
-5.52527
-5.86888
-6.2086
-6.54455
-6.8769
-7.20577
-7.53131
-7.85365
-8.17291
-8.48923
-8.80271
-9.11348
-9.42164
-9.7273
-10.0306
-10.3315
-10.6302
-10.9268
-11.2213
-11.5138
-11.8043
-12.0929
-12.3797
-12.6647
-12.9478
-13.2292
-13.5087
-13.7865
-14.0624
-14.3365
-14.6086
-14.8787
-15.1467
-15.4124
-15.6758
-15.9366
-16.1946
-16.4496
-16.7013
-16.9495
-17.1937
-17.4335
-17.6687
-17.8986
-18.1228
-18.3408
-18.5519
-18.7557
-18.9514
-19.1385
-19.3164
-19.4845
-19.6423
-19.7893
-19.9252
-20.0496
-20.1625
9.45817
9.4557
9.41013
9.31702
9.18288
9.01052
8.80155
8.55843
8.28415
7.98181
7.65452
7.30539
6.93748
6.55367
6.15669
5.74907
5.33309
4.91084
4.48414
4.05461
3.62368
3.19255
2.76225
2.33366
1.90751
1.48438
1.06476
0.649028
0.237475
-0.169679
-0.572278
-0.970219
-1.36345
-1.75194
-2.13572
-2.51481
-2.88928
-3.25921
-3.62467
-3.98578
-4.34264
-4.69535
-5.04405
-5.38884
-5.72986
-6.06721
-6.40102
-6.73141
-7.0585
-7.3824
-7.70322
-8.02107
-8.33605
-8.64828
-8.95784
-9.26482
-9.56933
-9.87143
-10.1712
-10.4687
-10.7641
-11.0573
-11.3485
-11.6376
-11.9247
-12.2099
-12.4932
-12.7746
-13.054
-13.3315
-13.6071
-13.8807
-14.1522
-14.4216
-14.6889
-14.9538
-15.2164
-15.4763
-15.7335
-15.9878
-16.2388
-16.4865
-16.7304
-16.9702
-17.2056
-17.4362
-17.6615
-17.8812
-18.0946
-18.3014
-18.501
-18.6928
-18.8763
-19.0511
-19.2166
-19.3724
-19.5181
-19.6534
-19.7781
-19.892
8.97763
8.97535
8.93388
8.84918
8.72703
8.56983
8.3789
8.15628
7.90451
7.62621
7.32409
7.00082
6.65909
6.30144
5.93033
5.54801
5.15661
4.75803
4.354
3.94606
3.53556
3.1237
2.71151
2.29987
1.88952
1.4811
1.07513
0.67204
0.27217
-0.124206
-0.51688
-0.905695
-1.29054
-1.67135
-2.04809
-2.42074
-2.78932
-3.15386
-3.51441
-3.87104
-4.2238
-4.57279
-4.91808
-5.25976
-5.59793
-5.93268
-6.2641
-6.59229
-6.91735
-7.23936
-7.55842
-7.87462
-8.18804
-8.49877
-8.8069
-9.11249
-9.41562
-9.71637
-10.0148
-10.3109
-10.6049
-10.8967
-11.1863
-11.4739
-11.7594
-12.0429
-12.3244
-12.6038
-12.8812
-13.1566
-13.4299
-13.701
-13.97
-14.2368
-14.5012
-14.7631
-15.0225
-15.2791
-15.5328
-15.7834
-16.0307
-16.2745
-16.5143
-16.75
-16.9813
-17.2076
-17.4287
-17.6442
-17.8536
-18.0564
-18.2522
-18.4405
-18.6209
-18.793
-18.9562
-19.1103
-19.255
-19.3898
-19.5148
-19.6298
8.53564
8.53352
8.49562
8.41818
8.30641
8.16239
7.98717
7.78247
7.55045
7.29337
7.01353
6.71329
6.39498
6.06088
5.71315
5.35387
4.98493
4.60812
4.22504
3.83715
3.44575
3.05198
2.65687
2.26129
1.86601
1.47167
1.07884
0.687966
0.299441
-0.0864206
-0.469365
-0.849191
-1.22574
-1.59891
-1.96861
-2.33478
-2.69741
-3.05649
-3.41202
-3.76403
-4.11256
-4.45766
-4.79938
-5.13778
-5.47292
-5.80488
-6.13372
-6.45952
-6.78235
-7.10228
-7.41938
-7.73373
-8.0454
-8.35445
-8.66096
-8.96497
-9.26655
-9.56576
-9.86265
-10.1573
-10.4497
-10.7398
-11.0279
-11.3138
-11.5975
-11.8792
-12.1587
-12.4362
-12.7115
-12.9846
-13.2556
-13.5243
-13.7908
-14.0548
-14.3164
-14.5753
-14.8316
-15.085
-15.3353
-15.5825
-15.8261
-16.0662
-16.3022
-16.5341
-16.7614
-16.9838
-17.201
-17.4126
-17.6183
-17.8175
-18.0099
-18.1952
-18.3728
-18.5424
-18.7037
-18.8564
-19.0001
-19.1347
-19.26
-19.376
8.12888
8.12692
8.09211
8.02098
7.91825
7.78572
7.62424
7.43526
7.22063
6.98229
6.72225
6.44254
6.14523
5.83232
5.50576
5.1674
4.819
4.46218
4.09844
3.72915
3.35554
2.97871
2.59967
2.21928
1.83829
1.45739
1.07713
0.698011
0.320446
-0.0552141
-0.428679
-0.799709
-1.16811
-1.53373
-1.89645
-2.25618
-2.61286
-2.96644
-3.3169
-3.66423
-4.00845
-4.34956
-4.68759
-5.02258
-5.35457
-5.6836
-6.00972
-6.33297
-6.65342
-6.97112
-7.28611
-7.59846
-7.90822
-8.21544
-8.52017
-8.82245
-9.12234
-9.41988
-9.7151
-10.008
-10.2987
-10.5872
-10.8735
-11.1576
-11.4395
-11.7193
-11.9968
-12.2722
-12.5454
-12.8163
-13.0849
-13.3511
-13.615
-13.8763
-14.1351
-14.3912
-14.6444
-14.8946
-15.1417
-15.3855
-15.6257
-15.8622
-16.0947
-16.3229
-16.5465
-16.7653
-16.9789
-17.187
-17.3892
-17.5852
-17.7746
-17.957
-18.1322
-18.2997
-18.4593
-18.6107
-18.7537
-18.8881
-19.0137
-19.1306
7.75448
7.75265
7.72054
7.65493
7.56009
7.43762
7.28819
7.11304
6.91377
6.69205
6.44961
6.18824
5.90976
5.61594
5.30853
4.98921
4.65957
4.32109
3.97517
3.6231
3.26603
2.90504
2.54107
2.17498
1.80753
1.43938
1.07112
0.703263
0.336238
-0.0295734
-0.393851
-0.756325
-1.11677
-1.47499
-1.83084
-2.1842
-2.53497
-2.88308
-3.22847
-3.5711
-3.91096
-4.24803
-4.58231
-4.91382
-5.24256
-5.56857
-5.89186
-6.21246
-6.53042
-6.84577
-7.15854
-7.46877
-7.77649
-8.08176
-8.38459
-8.68504
-8.98312
-9.27887
-9.57232
-9.86349
-10.1524
-10.4391
-10.7235
-11.0057
-11.2857
-11.5635
-11.839
-12.1123
-12.3832
-12.6519
-12.9181
-13.1819
-13.4432
-13.7019
-13.9579
-14.2111
-14.4614
-14.7086
-14.9525
-15.1931
-15.43
-15.6631
-15.8922
-16.117
-16.3372
-16.5526
-16.7629
-16.9677
-17.1668
-17.3598
-17.5465
-17.7264
-17.8993
-18.065
-18.223
-18.3734
-18.5157
-18.6499
-18.7759
-18.8937
7.40992
7.40821
7.37846
7.31768
7.22976
7.11612
6.97731
6.81438
6.62869
6.42172
6.19497
5.95
5.68842
5.41182
5.12175
4.81973
4.5072
4.18554
3.85603
3.51987
3.17817
2.83192
2.48207
2.12942
1.77474
1.41867
1.06182
0.704702
0.347769
-0.00857728
-0.363994
-0.718185
-1.07089
-1.42191
-1.77104
-2.11815
-2.4631
-2.80579
-3.14615
-3.4841
-3.8196
-4.15262
-4.48312
-4.8111
-5.13655
-5.45947
-5.77987
-6.09775
-6.41314
-6.72606
-7.03651
-7.34454
-7.65015
-7.95336
-8.25422
-8.55273
-8.84891
-9.14279
-9.43438
-9.7237
-10.0107
-10.2955
-10.5781
-10.8584
-11.1364
-11.4121
-11.6856
-11.9567
-12.2254
-12.4917
-12.7556
-13.017
-13.2757
-13.5318
-13.7851
-14.0355
-14.2829
-14.5272
-14.7681
-15.0056
-15.2394
-15.4693
-15.6952
-15.9168
-16.1338
-16.3461
-16.5533
-16.7551
-16.9513
-17.1416
-17.3257
-17.5034
-17.6743
-17.8382
-17.995
-18.1443
-18.2861
-18.4203
-18.5466
-18.6651
7.093
7.0914
7.06373
7.00719
6.92536
6.8195
6.69006
6.53793
6.3643
6.17045
5.95769
5.72741
5.48103
5.21994
4.94557
4.65927
4.36236
4.0561
3.74167
3.42021
3.09274
2.76022
2.42353
2.08349
1.74081
1.39615
1.05011
0.703199
0.355895
0.00860786
-0.338299
-0.684509
-1.02974
-1.37376
-1.71636
-2.05736
-2.39662
-2.73399
-3.06939
-3.40271
-3.73389
-4.06286
-4.38959
-4.71404
-5.03618
-5.35599
-5.67345
-5.98858
-6.30135
-6.61178
-6.91987
-7.22562
-7.52905
-7.83016
-8.12897
-8.42548
-8.7197
-9.01165
-9.30132
-9.58872
-9.87386
-10.1567
-10.4373
-10.7156
-10.9916
-11.2653
-11.5366
-11.8056
-12.0721
-12.3362
-12.5977
-12.8566
-13.1129
-13.3664
-13.6171
-13.8648
-14.1094
-14.3508
-14.5888
-14.8233
-15.0542
-15.2811
-15.504
-15.7225
-15.9366
-16.1459
-16.3502
-16.5492
-16.7428
-16.9306
-17.1124
-17.288
-17.4571
-17.6195
-17.7751
-17.9236
-18.0649
-18.1989
-18.3256
-18.4449
6.80178
6.80028
6.77444
6.72164
6.64518
6.5462
6.42504
6.28249
6.11957
5.93741
5.73716
5.52005
5.28732
5.04024
4.78007
4.50805
4.22538
3.93321
3.63264
3.32471
3.01041
2.69063
2.36621
2.03795
1.70653
1.37261
1.03677
0.699534
0.361382
0.0227335
-0.316034
-0.654586
-0.992628
-1.3299
-1.66617
-2.00124
-2.33495
-2.66713
-2.99766
-3.32643
-3.65335
-3.97834
-4.30132
-4.62226
-4.94109
-5.25778
-5.57231
-5.88465
-6.19479
-6.5027
-6.80839
-7.11184
-7.41304
-7.71201
-8.00872
-8.30319
-8.59541
-8.88538
-9.1731
-9.45855
-9.74174
-10.0226
-10.3013
-10.5776
-10.8515
-11.1231
-11.3924
-11.6591
-11.9235
-12.1853
-12.4445
-12.701
-12.9548
-13.2058
-13.4539
-13.699
-13.9409
-14.1796
-14.4148
-14.6465
-14.8745
-15.0986
-15.3186
-15.5343
-15.7456
-15.9521
-16.1537
-16.3502
-16.5413
-16.7269
-16.9066
-17.0803
-17.2477
-17.4088
-17.5632
-17.711
-17.8518
-17.9858
-18.1127
-18.2327
6.53457
6.53315
6.50893
6.45943
6.38772
6.29482
6.18101
6.04696
5.89358
5.72185
5.53278
5.32747
5.10703
4.87258
4.62527
4.36622
4.09652
3.81722
3.52936
3.23389
2.93174
2.62376
2.31075
1.99347
1.67258
1.34874
1.0225
0.694404
0.364918
0.0344753
-0.296538
-0.627774
-0.958923
-1.28971
-1.61988
-1.94923
-2.27755
-2.60469
-2.93048
-3.25481
-3.57755
-3.89862
-4.21792
-4.53538
-4.85094
-5.16454
-5.47614
-5.78571
-6.0932
-6.39859
-6.70186
-7.00299
-7.30196
-7.59875
-7.89335
-8.18576
-8.47595
-8.76392
-9.04965
-9.33313
-9.61435
-9.89327
-10.1699
-10.4442
-10.7161
-10.9857
-11.2528
-11.5174
-11.7795
-12.0391
-12.296
-12.5502
-12.8016
-13.0502
-13.2958
-13.5383
-13.7776
-14.0137
-14.2463
-14.4753
-14.7005
-14.9219
-15.1392
-15.3523
-15.5609
-15.7648
-15.964
-16.1581
-16.3469
-16.5303
-16.7081
-16.8801
-17.046
-17.2058
-17.3593
-17.5063
-17.6468
-17.7806
-17.9079
-18.0284
6.28986
6.28852
6.26573
6.21915
6.15165
6.06414
5.95685
5.83036
5.68547
5.52304
5.34399
5.14927
4.93987
4.71682
4.48115
4.23386
3.97596
3.70842
3.43219
3.14816
2.85721
2.56013
2.2577
1.95063
1.63957
1.32515
1.00793
0.688423
0.367117
0.0444392
-0.279215
-0.60349
-0.928061
-1.25264
-1.57696
-1.9008
-2.22394
-2.5462
-2.8674
-3.18741
-3.50608
-3.82332
-4.13901
-4.45306
-4.76539
-5.07595
-5.38466
-5.69147
-5.99633
-6.29922
-6.60008
-6.89888
-7.19561
-7.49022
-7.78271
-8.07304