/*--------------------------------*- C++ -*----------------------------------*\
| =========                 |                                                 |
| \\      /  F ield         | OpenFOAM: The Open Source CFD Toolbox           |
|  \\    /   O peration     | Version:  2406                                  |
|   \\  /    A nd           | Website:  www.openfoam.com                      |
|    \\/     M anipulation  |                                                 |
\*---------------------------------------------------------------------------*/
FoamFile
{
    version     2.0;
    format      ascii;
    arch        "LSB;label=32;scalar=64";
    class       surfaceScalarField;
    location    "350";
    object      phi;
}
// * * * * * * * * * * * * * * * * * * * * * * * * * * * * * * * * * * * * * //

dimensions      [0 3 -1 0 0 0 0];

oriented        oriented;

internalField   nonuniform List<scalar> 
299000
(
0.0796643
0.0203357
0.0586792
0.0209852
0.0442547
0.0144245
0.0348019
0.00945275
0.0285
0.00630194
0.0241898
0.00431026
0.0211381
0.00305168
0.0188886
0.0022495
0.0171646
0.00172394
0.0157985
0.00136618
0.0146856
0.00111283
0.0137588
0.000926826
0.0129729
0.00078588
0.0122968
0.000676154
0.011708
0.000588771
0.0111901
0.000517847
0.0107308
0.000459355
0.0103203
0.000410455
0.00995124
0.000369092
0.0096175
0.000333748
0.00931422
0.000303273
0.00903744
0.000276788
0.00878383
0.000253605
0.00855065
0.000233181
0.00833557
0.000215084
0.00813661
0.000198961
0.00795208
0.000184529
0.00778053
0.000171551
0.0076207
0.000159832
0.00747149
0.00014921
0.00733194
0.000139547
0.00720121
0.000130727
0.00707856
0.000122653
0.00696332
0.000115238
0.00685491
0.00010841
0.00675281
0.000102106
0.00665654
9.62719e-05
0.00656568
9.08593e-05
0.00647985
8.58267e-05
0.00639871
8.11371e-05
0.00632195
7.67581e-05
0.00624929
7.26609e-05
0.00618047
6.88198e-05
0.00611526
6.52121e-05
0.00605345
6.18172e-05
0.00599483
5.86169e-05
0.00593923
5.55945e-05
0.0058865
5.2735e-05
0.00583648
5.0025e-05
0.00578902
4.74521e-05
0.00574402
4.50049e-05
0.00570135
4.26733e-05
0.0056609
4.04477e-05
0.00562258
3.83194e-05
0.0055863
3.62803e-05
0.00555198
3.43229e-05
0.00551954
3.24402e-05
0.00548891
3.06257e-05
0.00546004
2.88731e-05
0.00543286
2.71765e-05
0.00540733
2.55305e-05
0.0053834
2.39297e-05
0.00536103
2.23688e-05
0.00534019
2.08428e-05
0.00532084
1.93468e-05
0.00530297
1.78759e-05
0.00528654
1.64251e-05
0.00527155
1.49895e-05
0.00525799
1.35641e-05
0.00524585
1.21434e-05
0.00523513
1.07221e-05
0.00522583
9.29412e-06
0.00521798
7.85332e-06
0.00521159
6.3927e-06
0.00520668
4.90473e-06
0.0052033
3.38083e-06
0.00520149
1.81143e-06
0.0052013
1.85393e-07
0.00520281
-1.51008e-06
0.0052061
-3.29031e-06
0.00521128
-5.17328e-06
0.00521846
-7.18104e-06
0.0052278
-9.34043e-06
0.00523948
-1.16853e-05
0.00525374
-1.42586e-05
0.00527086
-1.71171e-05
0.0052912
-2.03374e-05
0.00531522
-2.40288e-05
0.00534358
-2.83543e-05
0.00537715
-3.35742e-05
0.00541728
-4.01296e-05
0.0054661
-4.88161e-05
0.00552724
-6.11408e-05
0.00560732
-8.00807e-05
0.00571907
-0.000111758
0.00588815
-0.000169076
0.00616683
-0.000278679
0.00666327
-0.000496447
0.00764662
-0.000983353
-0.00232643
0.00997304
0.105208
0.0151278
0.100188
0.0260049
0.0901928
0.0244197
0.0797504
0.0198951
0.0705681
0.0154842
0.0629865
0.0118919
0.0568441
0.00919404
0.0518638
0.00722982
0.0477874
0.00580039
0.0444072
0.00474636
0.0415655
0.00395455
0.0391448
0.00334745
0.0370582
0.00287254
0.0352403
0.00249403
0.0336418
0.00218726
0.0322247
0.00193492
0.0309595
0.0017246
0.0298227
0.00154728
0.0287955
0.00139623
0.0278629
0.0012664
0.0270123
0.00115389
0.0262334
0.00105568
0.0255176
0.000969377
0.0248577
0.000893085
0.0242475
0.000825273
0.0236818
0.000764695
0.023156
0.000710328
0.0226662
0.000661327
0.022209
0.000616988
0.0217815
0.000576719
0.0213811
0.000540022
0.0210053
0.000506472
0.0206523
0.000475707
0.0203201
0.000447416
0.0200072
0.00042133
0.0197121
0.000397217
0.0194335
0.000374874
0.0191702
0.000354123
0.0189212
0.000334809
0.0186856
0.000316794
0.0184624
0.000299958
0.0182508
0.000284192
0.0180502
0.000269401
0.01786
0.000255499
0.0176794
0.000242408
0.0175079
0.00023006
0.0173451
0.000218392
0.0171905
0.000207348
0.0170437
0.000196877
0.0169042
0.000186932
0.0167717
0.00017747
0.0166459
0.000168452
0.0165265
0.000159843
0.0164133
0.00015161
0.0163058
0.000143721
0.016204
0.000136148
0.0161076
0.000128865
0.0160163
0.000121846
0.0159302
0.000115069
0.0158488
0.000108511
0.0157722
0.00010215
0.0157002
9.59677e-05
0.0156326
8.99429e-05
0.0155694
8.40572e-05
0.0155104
7.82917e-05
0.0154557
7.2628e-05
0.0154051
6.70477e-05
0.0153585
6.15322e-05
0.015316
5.60623e-05
0.0152775
5.06185e-05
0.0152431
4.51802e-05
0.0152127
3.97256e-05
0.0151863
3.42314e-05
0.015164
2.86721e-05
0.0151459
2.30197e-05
0.015132
1.72431e-05
0.0151225
1.13069e-05
0.0151175
5.17053e-06
0.0151172
-1.21303e-06
0.0151218
-7.89915e-06
0.0151316
-1.49541e-05
0.0151469
-2.24582e-05
0.0151681
-3.05103e-05
0.0151956
-3.92344e-05
0.0152302
-4.87897e-05
0.0152724
-5.9385e-05
0.0153234
-7.13034e-05
0.0153843
-8.49419e-05
0.0154568
-0.000100881
0.0155433
-0.000120008
0.0156469
-0.000143743
0.0157725
-0.000174456
0.0159276
-0.00021625
0.016124
-0.000276454
0.0163806
-0.000368426
0.0167282
-0.000516641
0.0172148
-0.000765244
0.0179129
-0.00119462
0.0188888
-0.00195919
-0.00328643
0.0198488
0.105142
0.00998548
0.10894
0.0222072
0.107708
0.0256523
0.103024
0.0245786
0.0967864
0.0217219
0.0902303
0.018448
0.0840049
0.0154194
0.0783724
0.0128623
0.0733881
0.0107847
0.0690146
0.00911992
0.0651812
0.00778793
0.0618121
0.00671654
0.0588375
0.00584714
0.0561972
0.00513436
0.0538407
0.00454377
0.0517262
0.00404936
0.0498194
0.00363144
0.0480917
0.00327498
0.0465195
0.0029684
0.0450832
0.00270273
0.0437662
0.0024709
0.0425546
0.0022673
0.0414365
0.00208745
0.0404018
0.00192772
0.0394419
0.00178517
0.0385493
0.00165735
0.0377174
0.00154226
0.0369405
0.00143822
0.0362136
0.00134382
0.0355325
0.00125788
0.0348931
0.00117939
0.0342921
0.00110747
0.0337264
0.00104141
0.0331933
0.000980545
0.0326903
0.000924337
0.0322152
0.0008723
0.031766
0.000824016
0.0313411
0.000779115
0.0309386
0.000737272
0.0305572
0.000698201
0.0301955
0.000661647
0.0298523
0.000627384
0.0295265
0.00059521
0.0292171
0.000564944
0.028923
0.000536423
0.0286436
0.0005095
0.0283779
0.000484045
0.0281254
0.000459935
0.0278852
0.000437064
0.0276568
0.000415331
0.0274396
0.000394645
0.0272331
0.000374924
0.0270369
0.00035609
0.0268504
0.000338072
0.0266733
0.000320806
0.0265053
0.000304229
0.0263458
0.000288286
0.0261948
0.000272922
0.0260517
0.000258087
0.0259165
0.000243734
0.0257889
0.000229817
0.0256685
0.000216293
0.0255554
0.000203119
0.0254492
0.000190256
0.0253498
0.000177663
0.0252571
0.0001653
0.025171
0.000153129
0.0250915
0.000141109
0.0250183
0.000129201
0.0249516
0.000117363
0.0248912
0.000105551
0.0248372
9.37195e-05
0.0247896
8.18193e-05
0.0247485
6.97972e-05
0.0247139
5.7595e-05
0.024686
4.51474e-05
0.0246649
3.23813e-05
0.0246509
1.92126e-05
0.0246441
5.54417e-06
0.024645
-8.73806e-06
0.0246538
-2.37702e-05
0.0246711
-3.9717e-05
0.0246973
-5.67807e-05
0.0247333
-7.52147e-05
0.0247799
-9.53422e-05
0.0248381
-0.000117585
0.0249093
-0.00014251
0.0249952
-0.000170898
0.0250982
-0.000203862
0.0252212
-0.000243046
0.0253684
-0.000290956
0.0255455
-0.000351531
0.0257604
-0.000431122
0.0260241
-0.000540134
0.0263514
-0.000695728
0.0267606
-0.000925899
0.0272702
-0.00127484
0.0278842
-0.00180862
0.0285389
-0.00261384
-0.00374158
0.028994
0.103312
0.00667338
0.108501
0.017018
0.111574
0.0225793
0.111772
0.0243809
0.109657
0.0238371
0.106065
0.02204
0.101732
0.0197529
0.0971675
0.0174263
0.0926768
0.0152754
0.0884183
0.0133785
0.0844612
0.011745
0.0808239
0.0103538
0.077498
0.009173
0.0744627
0.00816968
0.0716923
0.00731418
0.0691605
0.00658114
0.0668424
0.00594956
0.0647151
0.00540224
0.0627583
0.00492521
0.0609539
0.00450711
0.0592861
0.00413872
0.0577409
0.00381247
0.0563062
0.00352217
0.0549713
0.00326268
0.0537267
0.00302976
0.0525642
0.00281987
0.0514764
0.00263001
0.0504569
0.00245768
0.0495
0.00230075
0.0486005
0.0021574
0.0477538
0.00202606
0.0469559
0.00190541
0.046203
0.00179427
0.0454919
0.00169165
0.0448196
0.00159668
0.0441833
0.00150857
0.0435807
0.00142667
0.0430094
0.00135037
0.0424675
0.00127916
0.0419531
0.00121256
0.0414646
0.00115017
0.0410004
0.00109162
0.040559
0.00103656
0.0401393
0.000984719
0.0397399
0.000935812
0.0393598
0.000889603
0.0389979
0.000845872
0.0386535
0.000804421
0.0383255
0.000765067
0.0380131
0.000727647
0.0377158
0.000692009
0.0374327
0.000658012
0.0371632
0.00062553
0.0369069
0.000594442
0.036663
0.00056464
0.0364313
0.00053602
0.0362111
0.000508486
0.036002
0.00048195
0.0358038
0.000456326
0.035616
0.000431533
0.0354383
0.000407496
0.0352705
0.000384141
0.0351122
0.000361397
0.0349632
0.000339196
0.0348234
0.000317471
0.0346926
0.000296155
0.0345705
0.000275182
0.0344572
0.000254486
0.0343524
0.000233999
0.0342561
0.000213652
0.0341682
0.000193373
0.0340889
0.000173085
0.034018
0.000152707
0.0339556
0.000132153
0.0339019
0.000111324
0.0338569
9.01162e-05
0.0338209
6.84086e-05
0.0337941
4.60653e-05
0.0337767
2.29288e-05
0.0337691
-1.18468e-06
0.0337718
-2.64936e-05
0.0337854
-5.32608e-05
0.0338104
-8.18078e-05
0.0338477
-0.000112534
0.0338983
-0.000145945
0.0339634
-0.000182695
0.0340446
-0.000223644
0.0341436
-0.00026996
0.034263
-0.000323258
0.0344058
-0.00038584
0.0345759
-0.000461056
0.0347783
-0.000553895
0.035019
-0.00067188
0.0353053
-0.000826434
0.0356444
-0.00103477
0.0360406
-0.00132213
0.0364892
-0.00172341
0.036962
-0.00228144
0.0373826
-0.00303448
-0.00397318
0.0376142
0.102077
0.00459591
0.106348
0.0127478
0.110418
0.0185085
0.113046
0.0217532
0.113912
0.0229711
0.113197
0.0227555
0.111293
0.0216567
0.108613
0.0201063
0.105495
0.0183932
0.102184
0.0166889
0.0988448
0.0150847
0.0955774
0.0136212
0.0924408
0.0123096
0.0894653
0.0111452
0.086663
0.0101164
0.0840355
0.00920869
0.0815777
0.00840731
0.0792815
0.00769851
0.0771367
0.00706995
0.075133
0.00651086
0.0732598
0.00601191
0.0715071
0.00556514
0.0698656
0.00516372
0.0683264
0.00480186
0.0668815
0.0044746
0.0655237
0.00417771
0.0642462
0.00390754
0.0630428
0.003661
0.0619082
0.00343538
0.0608372
0.00322838
0.0598253
0.00303796
0.0588684
0.00286239
0.0579625
0.00270013
0.0571043
0.00254984
0.0562907
0.00241034
0.0555186
0.0022806
0.0547856
0.00215969
0.0540892
0.00204681
0.0534271
0.00194123
0.0527974
0.00184231
0.0521981
0.00174946
0.0516275
0.00166217
0.0510841
0.00157998
0.0505664
0.00150246
0.050073
0.00142923
0.0496026
0.00135996
0.0491542
0.00129432
0.0487265
0.00123204
0.0483188
0.00117285
0.0479299
0.00111652
0.0475591
0.00106282
0.0472055
0.00101155
0.0468685
0.000962538
0.0465474
0.000915597
0.0462414
0.000870571
0.0459501
0.000827311
0.045673
0.000785677
0.0454094
0.000745536
0.0451589
0.000706765
0.0449212
0.000669246
0.0446958
0.000632866
0.0444825
0.000597519
0.0442808
0.0005631
0.0440905
0.000529508
0.0439113
0.000496645
0.043743
0.000464413
0.0435855
0.000432716
0.0434385
0.000401456
0.043302
0.000370535
0.0431758
0.000339851
0.0430599
0.0003093
0.0429542
0.00027877
0.0428587
0.000248145
0.0427736
0.000217298
0.0426988
0.000186091
0.0426346
0.000154373
0.042581
0.000121972
0.0425384
8.86972e-05
0.042507
5.43255e-05
0.0424872
1.85996e-05
0.0424795
-1.87842e-05
0.0424844
-5.81896e-05
0.0425027
-0.000100057
0.0425351
-0.000144929
0.0425826
-0.000193485
0.0426465
-0.000246589
0.0427282
-0.00030536
0.0428295
-0.000371278
0.0429526
-0.000446334
0.0431
-0.00053326
0.0432748
-0.000635864
0.0434804
-0.000759523
0.0437204
-0.000911864
0.0439977
-0.00110367
0.0443128
-0.00134988
0.044661
-0.00167032
0.0450266
-0.00208908
0.0453755
-0.00263031
0.0456474
-0.00330644
-0.00409258
0.0457668
0.101292
0.00330371
0.104405
0.00963504
0.108104
0.0148093
0.111405
0.0184521
0.113752
0.0206244
0.114946
0.0215612
0.115041
0.021562
0.114222
0.0209253
0.112714
0.0199007
0.110729
0.0186741
0.108441
0.0173728
0.105984
0.0160781
0.103456
0.0148375
0.100925
0.0136762
0.098437
0.0126048
0.0960205
0.0116252
0.0936936
0.0107342
0.0914661
0.00992603
0.0893422
0.00919385
0.0873225
0.00853048
0.0854055
0.00792899
0.0835877
0.00738287
0.0818653
0.0068862
0.0802335
0.00643364
0.0786876
0.00602044
0.077223
0.00564239
0.0758347
0.00529576
0.0745185
0.00497726
0.0732699
0.004684
0.0720848
0.00441341
0.0709595
0.00416325
0.0698904
0.0039315
0.0688741
0.00371641
0.0679076
0.00351641
0.0669878
0.0033301
0.0661122
0.00315624
0.0652781
0.00299373
0.0644834
0.00284156
0.0637258
0.00269886
0.0630032
0.00256483
0.0623139
0.00243874
0.0616562
0.00231995
0.0610283
0.00220787
0.0604288
0.00210196
0.0598562
0.00200175
0.0593094
0.00190679
0.058787
0.00181669
0.058288
0.00173106
0.0578113
0.00164958
0.0573559
0.00157194
0.0569209
0.00149784
0.0565054
0.00142703
0.0561087
0.00135926
0.0557299
0.0012943
0.0553686
0.00123195
0.0550239
0.00117199
0.0546953
0.00111426
0.0543823
0.00105856
0.0540843
0.00100474
0.0538009
0.000952638
0.0535317
0.000902104
0.0532762
0.000852994
0.0530341
0.00080517
0.0528052
0.000758494
0.052589
0.000712836
0.0523853
0.000668065
0.052194
0.000624051
0.0520148
0.000580664
0.0518475
0.000537772
0.0516921
0.000495239
0.0515485
0.000452925
0.0514166
0.000410685
0.0512964
0.000368362
0.0511879
0.00032579
0.0510912
0.000282788
0.0510064
0.000239158
0.0509337
0.000194677
0.0508733
0.000149096
0.0508255
0.000102131
0.0507906
5.3453e-05
0.0507692
2.67607e-06
0.0507617
-5.06557e-05
0.0507687
-0.00010709
0.0507911
-0.000167295
0.0508297
-0.000232092
0.0508856
-0.000302511
0.0509601
-0.00037986
0.0510546
-0.000465824
0.0511709
-0.000562603
0.0513107
-0.000673107
0.0514761
-0.000801223
0.0516687
-0.000952166
0.0518898
-0.00113292
0.0521388
-0.0013527
0.0524122
-0.0016233
0.0527009
-0.00195895
0.0529865
-0.00237476
0.053239
-0.00288271
0.0534157
-0.0034832
-0.00415145
0.0534746
0.100819
0.00248517
0.103016
0.00743795
0.105987
0.0118376
0.109099
0.0153399
0.111866
0.0178577
0.113985
0.0194425
0.115326
0.020221
0.115892
0.0203588
0.115768
0.0200251
0.115073
0.0193695
0.113933
0.0185125
0.112466
0.0175453
0.11077
0.0165331
0.108926
0.0155201
0.106997
0.0145346
0.105028
0.0135938
0.103055
0.0127068
0.101104
0.0118776
0.0991907
0.0111068
0.0973284
0.0103927
0.0955247
0.00973271
0.0937843
0.00912331
0.0921096
0.00856085
0.0905016
0.00804162
0.08896
0.00756203
0.0874838
0.00711867
0.0860712
0.00670837
0.0847202
0.0063282
0.0834287
0.00597549
0.0821943
0.00564782
0.0810146
0.00534297
0.0798871
0.00505896
0.0788096
0.00479397
0.0777796
0.00454639
0.076795
0.00431473
0.0758536
0.00409766
0.0749533
0.00389399
0.0740922
0.00370263
0.0732685
0.00352258
0.0724804
0.00335294
0.0717262
0.00319292
0.0710044
0.00304175
0.0703135
0.00289877
0.0696521
0.00276336
0.0690189
0.00263495
0.0684127
0.00251303
0.0678323
0.00239712
0.0672765
0.00228678
0.0667445
0.00218161
0.0662352
0.00208123
0.0657478
0.00198531
0.0652813
0.00189351
0.064835
0.00180555
0.0644082
0.00172114
0.0640001
0.00164003
0.0636101
0.00156196
0.0632376
0.00148672
0.0628821
0.00141408
0.062543
0.00134384
0.0622199
0.00127581
0.0619122
0.00120978
0.0616196
0.00114559
0.0613417
0.00108306
0.0610782
0.00102203
0.0608287
0.000962316
0.060593
0.000903765
0.0603708
0.000846212
0.060162
0.000789494
0.0599663
0.000733446
0.0597837
0.000677897
0.0596139
0.000622674
0.059457
0.000567593
0.0593129
0.000512462
0.0591816
0.000457074
0.0590632
0.000401206
0.0589577
0.000344615
0.0588654
0.000287031
0.0587863
0.00022815
0.0587208
0.000167631
0.0586692
0.000105081
0.0586318
4.00427e-05
0.0586092
-2.80175e-05
0.0586018
-9.9735e-05
0.0586104
-0.000175872
0.0586357
-0.000257356
0.0586785
-0.000345326
0.0587398
-0.000441195
0.0588207
-0.00054674
0.0589223
-0.000664212
0.0590457
-0.000796481
0.0591917
-0.000947226
0.0593607
-0.00112114
0.059552
-0.00132418
0.059763
-0.00156369
0.059988
-0.00184837
0.0602168
-0.00218772
0.0604325
-0.00259047
0.0606112
-0.00306141
0.0607241
-0.00359612
-0.00417421
0.0607469
0.100541
0.00194434
0.102093
0.00588584
0.10437
0.00956099
0.106998
0.0127119
0.109631
0.0152242
0.111999
0.0170749
0.113921
0.0182991
0.115307
0.0189724
0.116141
0.0191908
0.116456
0.0190542
0.116314
0.0186549
0.115787
0.0180719
0.114951
0.0173695
0.113874
0.0165973
0.112616
0.0157923
0.111229
0.0149812
0.109753
0.0141822
0.108223
0.0134076
0.106665
0.0126651
0.105099
0.011959
0.10354
0.0112912
0.102001
0.0106623
0.100491
0.0100717
0.0990143
0.00951791
0.097577
0.00899936
0.0961816
0.00851407
0.09483
0.00805998
0.0935231
0.00763504
0.0922614
0.00723723
0.0910446
0.00686462
0.0898722
0.00651538
0.0887434
0.00618777
0.0876571
0.0058802
0.0866124
0.00559117
0.0856078
0.00531929
0.0846422
0.0050633
0.0837141
0.004822
0.0828224
0.00459433
0.0819657
0.00437928
0.0811427
0.00417594
0.0803522
0.00398345
0.0795929
0.00380105
0.0788637
0.00362802
0.0781633
0.00346368
0.0774908
0.00330744
0.0768451
0.00315873
0.0762252
0.00301703
0.0756302
0.00288185
0.075059
0.00275274
0.074511
0.00262929
0.0739852
0.0025111
0.0734809
0.00239782
0.0729973
0.0022891
0.0725338
0.00218462
0.0720898
0.00208408
0.0716645
0.00198721
0.0712575
0.00189373
0.0708682
0.0018034
0.0704961
0.00171596
0.0701407
0.0016312
0.0698016
0.00154888
0.0694784
0.00146881
0.0691707
0.00139076
0.0688782
0.00131454
0.0686005
0.00123996
0.0683375
0.00116681
0.0680888
0.00109491
0.0678542
0.00102405
0.0676336
0.000954043
0.0674268
0.000884686
0.0672337
0.00081577
0.0670543
0.000747079
0.0668883
0.000678384
0.066736
0.000609443
0.0665972
0.000539993
0.066472
0.00046975
0.0663607
0.000398401
0.0662632
0.000325597
0.0661799
0.000250945
0.066111
0.000173999
0.0660568
9.42476e-05
0.0660177
1.10947e-05
0.0659941
-7.61568e-05
0.0659866
-0.000168333
0.0659956
-0.00026642
0.0660219
-0.000371609
0.066066
-0.000485344
0.0661287
-0.000609394
0.0662104
-0.000745932
0.0663116
-0.000897634
0.0664321
-0.00106779
0.0665714
-0.0012604
0.0667275
-0.00148028
0.0668968
-0.00173297
0.067073
-0.00202456
0.0672462
-0.00236098
0.0674025
-0.00274675
0.0675238
-0.00318274
0.0675909
-0.00366312
-0.00417213
0.0675888
0.100374
0.00156999
0.101489
0.00477095
0.103211
0.0078395
0.105327
0.0105954
0.107614
0.0129371
0.109868
0.0148208
0.111926
0.0162415
0.113673
0.0172249
0.115046
0.017818
0.116022
0.0180789
0.116608
0.0180686
0.116834
0.0178455
0.116742
0.0174622
0.116375
0.0169636
0.115781
0.0163865
0.115002
0.0157604
0.114076
0.0151078
0.113038
0.014446
0.111915
0.0137876
0.110733
0.0131415
0.10951
0.0125139
0.108264
0.0119089
0.107006
0.011329
0.105749
0.0107754
0.1045
0.0102487
0.103265
0.00974873
0.10205
0.00927485
0.100859
0.00882624
0.0996942
0.00840185
0.0985583
0.00800054
0.0974526
0.00762111
0.096378
0.00726236
0.0953351
0.00692308
0.0943242
0.0066021
0.0933452
0.0062983
0.0923979
0.0060106
0.0914819
0.00573799
0.0905967
0.00547949
0.0897418
0.00523421
0.0889165
0.00500128
0.08812
0.00477991
0.0873517
0.00456936
0.0866108
0.00436891
0.0858966
0.00417793
0.0852082
0.0039958
0.084545
0.00382194
0.0839062
0.00365583
0.0832911
0.00349695
0.082699
0.00334486
0.0821292
0.0031991
0.081581
0.00305926
0.0810539
0.00292495
0.0805472
0.00279582
0.0800603
0.00267151
0.0795927
0.0025517
0.0791438
0.00243607
0.0787132
0.00232435
0.0783004
0.00221623
0.0779049
0.00211147
0.0775263
0.00200979
0.0771642
0.00191096
0.0768183
0.00181473
0.0764882
0.00172087
0.0761736
0.00162915
0.0758742
0.00153935
0.0755897
0.00145124
0.07532
0.0013646
0.0750649
0.00127922
0.0748241
0.00119486
0.0745975
0.00111129
0.0743849
0.00102828
0.0741864
0.000945585
0.0740019
0.000862939
0.0738313
0.000780069
0.0736746
0.000696679
0.0735319
0.000612451
0.0734032
0.000527034
0.0732888
0.000440042
0.0731887
0.000351043
0.0731031
0.00025955
0.0730324
0.000165011
0.0729767
6.67906e-05
0.0729364
-3.58459e-05
0.0729118
-0.000143755
0.0729033
-0.000257944
0.0729113
-0.000379601
0.0729361
-0.00051014
0.072978
-0.000651244
0.0730369
-0.000804922
0.0731129
-0.00097356
0.0732051
-0.00115998
0.0733121
-0.00136745
0.0734315
-0.00159968
0.0735592
-0.00186071
0.0736892
-0.00215454
0.0738129
-0.00248463
0.073919
-0.00285286
0.0739944
-0.00325813
0.0740259
-0.00369462
-0.0041504
0.0740041
0.10027
0.00129975
0.10109
0.00395087
0.102398
0.00653221
0.104073
0.00891981
0.105976
0.0110339
0.107967
0.0128302
0.109918
0.0142901
0.111727
0.0154161
0.113318
0.0162272
0.114643
0.0167537
0.11568
0.0170317
0.116426
0.0171
0.116891
0.0169966
0.117098
0.0167567
0.117073
0.0164117
0.116845
0.0159886
0.116443
0.01551
0.115894
0.0149945
0.115225
0.0144567
0.114458
0.0139082
0.113614
0.0133581
0.11271
0.012813
0.111761
0.0122779
0.11078
0.0117565
0.109778
0.0112511
0.108763
0.0107634
0.107744
0.0102943
0.106726
0.00984434
0.105714
0.00941355
0.104713
0.00900173
0.103725
0.00860849
0.102754
0.00823328
0.101802
0.00787547
0.10087
0.00753435
0.0999589
0.00720919
0.0990702
0.00689924
0.0982045
0.00660375
0.097362
0.00632198
0.096543
0.00605319
0.0957476
0.00579669
0.0949757
0.0055518
0.0942272
0.00531787
0.0935018
0.00509428
0.0927993
0.00488044
0.0921193
0.00467578
0.0914615
0.00447977
0.0908254
0.00429191
0.0902106
0.0041117
0.0896168
0.0039387
0.0890434
0.00377247
0.0884901
0.00361261
0.0879563
0.00345871
0.0874417
0.00331041
0.0869459
0.00316736
0.0864683
0.00302923
0.0860087
0.00289568
0.0855667
0.00276641
0.0851418
0.00264113
0.0847337
0.00251955
0.0843421
0.00240139
0.0839667
0.0022864
0.0836071
0.00217431
0.0832631
0.00206487
0.0829344
0.00195784
0.0826208
0.00185296
0.082322
0.00174999
0.0820379
0.00164869
0.0817683
0.00154882
0.0815131
0.00145013
0.081272
0.00135235
0.081045
0.00125525
0.0808321
0.00115853
0.0806331
0.00106191
0.0804481
0.000965101
0.080277
0.000867772
0.0801199
0.000769576
0.0799768
0.000670137
0.0798478
0.000569038
0.079733
0.000465822
0.0796326
0.000359974
0.0795467
0.000250917
0.0794755
0.000137997
0.0794192
2.04655e-05
0.0793779
-0.000102536
0.079352
-0.000231999
0.0793415
-0.000369072
0.0793464
-0.000515088
0.0793668
-0.000671595
0.0794022
-0.000840384
0.0794522
-0.00102351
0.0795155
-0.00122331
0.0795904
-0.00144237
0.0796742
-0.00168345
0.0797628
-0.00194934
0.0798508
-0.00224256
0.0799311
-0.00256486
0.0799948
-0.00291659
0.0800324
-0.00329575
0.0800349
-0.00369709
-0.00411154
0.079996
0.100202
0.00109745
0.100821
0.00333197
0.101827
0.00552659
0.103151
0.00759525
0.104708
0.00947761
0.106402
0.0111357
0.108144
0.0125486
0.10985
0.0137094
0.111454
0.0146233
0.112904
0.0153043
0.114163
0.0157725
0.115211
0.0160514
0.116042
0.0161664
0.116656
0.0161425
0.117063
0.0160039
0.117279
0.0157727
0.117321
0.0154684
0.117207
0.0151082
0.116957
0.0147067
0.116589
0.014276
0.116121
0.0138263
0.115569
0.0133655
0.114946
0.0129003
0.114267
0.0124357
0.113542
0.0119758
0.112782
0.0115236
0.111995
0.0110814
0.111189
0.0106507
0.110369
0.0102328
0.109543
0.00982835
0.108713
0.00943781
0.107885
0.00906136
0.107062
0.00869897
0.106246
0.00835049
0.105439
0.00801567
0.104644
0.00769413
0.103863
0.0073855
0.103095
0.0070893
0.102343
0.00680509
0.101608
0.00653236
0.100889
0.00627062
0.100187
0.00601938
0.0995035
0.00577816
0.0988375
0.00554646
0.0981894
0.00532382
0.0975594
0.00510979
0.0969474
0.00490391
0.0963534
0.00470577
0.0957771
0.00451495
0.0952185
0.00433105
0.0946775
0.00415368
0.0941537
0.00398249
0.093647
0.00381711
0.0931571
0.0036572
0.0926839
0.00350244
0.0922271
0.00335251
0.0917864
0.00320709
0.0913616
0.0030659
0.0909525
0.00292864
0.0905589
0.00279504
0.0901805
0.00266482
0.0898171
0.00253771
0.0894685
0.00241345
0.0891346
0.00229178
0.0888151
0.00217245
0.0885099
0.00205519
0.0882188
0.00193974
0.0879418
0.00182586
0.0876786
0.00171326
0.0874293
0.00160169
0.0871937
0.00149085
0.0869718
0.00138047
0.0867634
0.00127024
0.0865687
0.00115983
0.0863876
0.0010489
0.0862201
0.000937099
0.0860662
0.000824015
0.085926
0.000709219
0.0857996
0.000592236
0.085687
0.000472539
0.0855884
0.000349543
0.0855038
0.00022259
0.0854333
9.0941e-05
0.085377
-4.6241e-05
0.0853349
-0.000189905
0.085307
-0.000341128
0.085293
-0.000501132
0.0852927
-0.000671301
0.0853055
-0.000853187
0.0853305
-0.00104851
0.0853664
-0.00125915
0.0854111
-0.00148709
0.085462
-0.00173431
0.0855153
-0.00200266
0.0855663
-0.00229358
0.0856092
-0.00260775
0.0856372
-0.00294464
0.0856434
-0.00330194
0.0856215
-0.00367512
-0.00405721
0.0855671
0.100156
0.000941265
0.100635
0.00285319
0.101422
0.00473999
0.102476
0.00654067
0.103744
0.00820986
0.105163
0.00971671
0.10667
0.0110418
0.108203
0.0121757
0.109709
0.0131174
0.111141
0.0138724
0.112463
0.014451
0.113647
0.0148672
0.114677
0.0151368
0.115542
0.0152767
0.116242
0.0153042
0.116779
0.0152359
0.11716
0.0150875
0.117395
0.0148731
0.117496
0.0146058
0.117475
0.0142967
0.117346
0.0139556
0.11712
0.0135909
0.116811
0.0132097
0.116429
0.0128177
0.115985
0.01242
0.115488
0.0120202
0.114948
0.0116218
0.114371
0.0112272
0.113766
0.0108384
0.113137
0.0104569
0.112491
0.010084
0.111832
0.00972032
0.111164
0.00936659
0.110492
0.00902318
0.109817
0.00869027
0.109143
0.00836797
0.108472
0.00805623
0.107807
0.00775494
0.107148
0.00746392
0.106497
0.00718295
0.105856
0.00691175
0.105226
0.00665002
0.104606
0.00639745
0.103999
0.0061537
0.103404
0.00591844
0.102823
0.0056913
0.102255
0.00547196
0.101701
0.00526007
0.10116
0.00505527
0.100634
0.00485725
0.100122
0.00466565
0.0996244
0.00448017
0.099141
0.00430048
0.098672
0.00412627
0.0982172
0.00395723
0.0977766
0.00379308
0.0973502
0.00363352
0.0969378
0.00347825
0.0965395
0.00332702
0.096155
0.00317954
0.0957842
0.00303553
0.0954272
0.00289475
0.0950838
0.00275691
0.0947538
0.00262176
0.0944372
0.00248904
0.0941339
0.00235848
0.0938438
0.00222982
0.0935669
0.00210279
0.093303
0.00197712
0.0930522
0.00185252
0.0928143
0.0017287
0.0925894
0.00160538
0.0923775
0.00148221
0.0921784
0.00135889
0.0919923
0.00123504
0.0918191
0.0011103
0.0916588
0.000984264
0.0915115
0.00085648
0.0913773
0.000726474
0.0912561
0.000593718
0.091148
0.000457631
0.0910531
0.00031757
0.0909712
0.000172821
0.0909024
2.25882e-05
0.0908465
-0.000134016
0.0908033
-0.000297977
0.0907726
-0.00047039
0.0907537
-0.000652462
0.090746
-0.000845505
0.0907485
-0.00105093
0.0907595
-0.0012702
0.0907772
-0.00150479
0.090799
-0.00175608
0.0908215
-0.00202521
0.0908408
-0.00231289
0.0908522
-0.00261913
0.0908505
-0.00294294
0.0908306
-0.00328202
0.090788
-0.0036325
-0.00398896
0.0907197
0.100124
0.000817563
0.100503
0.00247432
0.101129
0.00411374
0.101978
0.00569143
0.103015
0.00717295
0.104198
0.00853359
0.105483
0.0097566
0.106827
0.0108324
0.108186
0.0117576
0.109525
0.0125335
0.110811
0.0131653
0.112017
0.0136609
0.113124
0.0140302
0.114116
0.0142843
0.114986
0.0144349
0.115728
0.0144939
0.116342
0.0144732
0.116831
0.0143838
0.117201
0.0142364
0.117457
0.0140404
0.117608
0.0138045
0.117662
0.0135365
0.117629
0.0132432
0.117516
0.0129303
0.117333
0.0126031
0.117088
0.0122658
0.116787
0.0119221
0.11644
0.011575
0.116051
0.0112272
0.115627
0.0108806
0.115174
0.010537
0.114697
0.0101978
0.114199
0.00986396
0.113686
0.00953647
0.11316
0.00921591
0.112626
0.00890276
0.112084
0.00859735
0.11154
0.00829989
0.110993
0.00801051
0.110447
0.00772922
0.109902
0.007456
0.109362
0.00719077
0.108826
0.0069334
0.108296
0.00668372
0.107773
0.00644155
0.107257
0.00620666
0.10675
0.00597884
0.106253
0.00575785
0.105764
0.00554342
0.105286
0.00533531
0.104819
0.00513326
0.104362
0.00493701
0.103916
0.00474628
0.103482
0.00456081
0.103058
0.00438036
0.102647
0.00420464
0.102247
0.0040334
0.101859
0.00386638
0.101483
0.00370332
0.101118
0.00354397
0.100766
0.00338808
0.100425
0.00323538
0.100096
0.00308562
0.0997795
0.00293854
0.0994746
0.0027939
0.0991817
0.00265142
0.0989006
0.00251085
0.0986315
0.00237191
0.0983743
0.00223433
0.098129
0.00209783
0.0978956
0.00196211
0.0976741
0.00182687
0.0974645
0.00169179
0.0972669
0.00155653
0.0970812
0.00142073
0.0969075
0.00128402
0.0967457
0.00114599
0.096596
0.0010062
0.0964583
0.000864172
0.0963326
0.000719393
0.096219
0.000571297
0.0961173
0.00041927
0.0960275
0.000262635
0.0959494
0.000100651
0.0958829
-6.74936e-05
0.0958276
-0.000242685
0.0957831
-0.000425882
0.0957487
-0.000618116
0.0957237
-0.000820475
0.0957069
-0.00103408
0.0956967
-0.00126006
0.0956914
-0.00149947
0.0956886
-0.00175322
0.0956853
-0.00202195
0.0956783
-0.00230588
0.0956638
-0.00260461
0.0956378
-0.00291696
0.0955965
-0.00324076
0.0955368
-0.00357276
-0.00390866
0.0954565
0.1001
0.000717471
0.100406
0.00216841
0.100913
0.00360648
0.101606
0.00499848
0.102461
0.00631788
0.10345
0.00754479
0.104542
0.00866506
0.105704
0.00966985
0.106907
0.010555
0.10812
0.0113199
0.109319
0.011967
0.110479
0.0125009
0.111581
0.0129276
0.112611
0.0132546
0.113556
0.0134896
0.114409
0.0136413
0.115164
0.0137181
0.115819
0.0137283
0.116376
0.0136803
0.116834
0.0135816
0.117199
0.0134395
0.117475
0.0132606
0.117667
0.013051
0.117782
0.012816
0.117824
0.0125605
0.117801
0.0122888
0.117719
0.0120045
0.117583
0.011711
0.117399
0.011411
0.117173
0.0111069
0.116909
0.0108008
0.116613
0.0104943
0.116288
0.0101889
0.115938
0.00988583
0.115568
0.00958604
0.115181
0.00929031
0.114779
0.00899929
0.114365
0.00871347
0.113942
0.00843324
0.113513
0.00815887
0.113078
0.00789055
0.112641
0.00762842
0.112201
0.00737253
0.111762
0.00712289
0.111324
0.00687946
0.110889
0.00664218
0.110457
0.00641094
0.110029
0.00618563
0.109606
0.00596609
0.109189
0.00575215
0.108779
0.00554366
0.108376
0.0053404
0.10798
0.0051422
0.107592
0.00494884
0.107212
0.00476011
0.106841
0.0045758
0.106479
0.00439569
0.106125
0.00421955
0.105782
0.00404717
0.105447
0.0038783
0.105123
0.00371272
0.104808
0.0035502
0.104503
0.0033905
0.104208
0.00323337
0.103923
0.00307858
0.103649
0.00292587
0.103385
0.00277499
0.103131
0.00262568
0.102888
0.00247767
0.102655
0.00233067
0.102433
0.0021844
0.102221
0.00203856
0.10202
0.00189283
0.101829
0.00174689
0.10165
0.00160036
0.101481
0.00145289
0.101323
0.00130407
0.101176
0.00115348
0.101039
0.00100065
0.100913
0.00084509
0.100798
0.000686261
0.100694
0.000523584
0.1006
0.000356431
0.100517
0.000184124
0.100443
5.93527e-06
0.10038
-0.000178917
0.100325
-0.00037126
0.100279
-0.000571957
0.10024
-0.000781892
0.100208
-0.00100194