/*--------------------------------*- C++ -*----------------------------------*\
| =========                 |                                                 |
| \\      /  F ield         | OpenFOAM: The Open Source CFD Toolbox           |
|  \\    /   O peration     | Version:  2406                                  |
|   \\  /    A nd           | Website:  www.openfoam.com                      |
|    \\/     M anipulation  |                                                 |
\*---------------------------------------------------------------------------*/
FoamFile
{
    version     2.0;
    format      ascii;
    arch        "LSB;label=32;scalar=64";
    class       volVectorField;
    location    "350";
    object      U;
}
// * * * * * * * * * * * * * * * * * * * * * * * * * * * * * * * * * * * * * //

dimensions      [0 1 -1 0 0 0 0];

internalField   nonuniform List<vector> 
150000
(
(7.94097 0.953544 0)
(6.69751 1.02915 0)
(5.17751 0.578429 0)
(3.9022 0.29437 0)
(3.1115 0.166101 0)
(2.60344 0.0998762 0)
(2.24737 0.0624337 0)
(1.98827 0.0414161 0)
(1.7935 0.0293146 0)
(1.64163 0.0219095 0)
(1.5194 0.0170935 0)
(1.41858 0.0137918 0)
(1.33375 0.0114203 0)
(1.26123 0.00964756 0)
(1.19841 0.00827862 0)
(1.1434 0.00719374 0)
(1.09479 0.00631584 0)
(1.0515 0.00559322 0)
(1.01267 0.00498993 0)
(0.977657 0.00448016 0)
(0.945909 0.00404495 0)
(0.916991 0.00367001 0)
(0.890542 0.00334439 0)
(0.866263 0.00305958 0)
(0.8439 0.00280886 0)
(0.823241 0.00258684 0)
(0.804104 0.0023892 0)
(0.786332 0.00221239 0)
(0.769791 0.0020535 0)
(0.754364 0.00191013 0)
(0.739948 0.00178026 0)
(0.726453 0.00166218 0)
(0.713801 0.00155448 0)
(0.701921 0.00145592 0)
(0.690752 0.00136546 0)
(0.680238 0.00128221 0)
(0.67033 0.00120537 0)
(0.660983 0.00113429 0)
(0.652158 0.00106836 0)
(0.643818 0.00100707 0)
(0.63593 0.000949975 0)
(0.628466 0.000896661 0)
(0.621397 0.000846777 0)
(0.614701 0.000800006 0)
(0.608355 0.000756066 0)
(0.602338 0.000714703 0)
(0.596631 0.000675691 0)
(0.591219 0.000638824 0)
(0.586084 0.000603917 0)
(0.581213 0.000570801 0)
(0.576594 0.000539323 0)
(0.572212 0.000509342 0)
(0.568059 0.000480731 0)
(0.564123 0.000453369 0)
(0.560395 0.000427148 0)
(0.556867 0.000401965 0)
(0.55353 0.000377725 0)
(0.550379 0.000354339 0)
(0.547405 0.000331723 0)
(0.544604 0.000309795 0)
(0.54197 0.00028848 0)
(0.539498 0.000267704 0)
(0.537184 0.000247397 0)
(0.535024 0.000227486 0)
(0.533016 0.000207904 0)
(0.531155 0.00018858 0)
(0.52944 0.000169447 0)
(0.52787 0.000150432 0)
(0.526443 0.000131462 0)
(0.525157 0.00011246 0)
(0.524014 9.33463e-05 0)
(0.523013 7.40313e-05 0)
(0.522155 5.44231e-05 0)
(0.521442 3.44155e-05 0)
(0.520877 1.38955e-05 0)
(0.520462 -7.26929e-06 0)
(0.520201 -2.92239e-05 0)
(0.5201 -5.21416e-05 0)
(0.520164 -7.62187e-05 0)
(0.520402 -0.000101694 0)
(0.520822 -0.000128843 0)
(0.521437 -0.000158006 0)
(0.522259 -0.000189588 0)
(0.523305 -0.000224098 0)
(0.524597 -0.000262168 0)
(0.526158 -0.000304633 0)
(0.528021 -0.000352607 0)
(0.530226 -0.000407721 0)
(0.532827 -0.000472531 0)
(0.535898 -0.000551508 0)
(0.539544 -0.000653167 0)
(0.543928 -0.000794965 0)
(0.549317 -0.00101432 0)
(0.556184 -0.00139569 0)
(0.565418 -0.0021407 0)
(0.578681 -0.00372815 0)
(0.599218 -0.00725073 0)
(0.63492 -0.0160065 0)
(0.708154 -0.0469213 0)
(0.822827 -0.173548 0)
(10.2186 1.88712 0)
(10.3826 2.72493 0)
(9.62171 2.24106 0)
(8.49562 1.62032 0)
(7.47678 1.14055 0)
(6.64227 0.808006 0)
(5.96316 0.586461 0)
(5.41238 0.439609 0)
(4.96435 0.340475 0)
(4.59554 0.271572 0)
(4.28751 0.222108 0)
(4.02668 0.185465 0)
(3.80304 0.157533 0)
(3.60913 0.135703 0)
(3.43932 0.118274 0)
(3.28933 0.104102 0)
(3.15584 0.0924 0)
(3.03623 0.0826072 0)
(2.92844 0.0743175 0)
(2.83078 0.0672291 0)
(2.74189 0.0611139 0)
(2.66064 0.0557964 0)
(2.5861 0.0511398 0)
(2.51748 0.0470357 0)
(2.45411 0.0433975 0)
(2.39543 0.0401553 0)
(2.34096 0.0372519 0)
(2.29027 0.0346402 0)
(2.243 0.0322813 0)
(2.19883 0.0301426 0)
(2.15749 0.0281964 0)
(2.11874 0.0264197 0)
(2.08234 0.0247927 0)
(2.04812 0.0232982 0)
(2.01591 0.0219218 0)
(1.98554 0.0206508 0)
(1.95688 0.0194743 0)
(1.92982 0.0183826 0)
(1.90423 0.0173673 0)
(1.88002 0.0164211 0)
(1.8571 0.0155375 0)
(1.83538 0.0147106 0)
(1.81479 0.0139353 0)
(1.79526 0.013207 0)
(1.77673 0.0125216 0)
(1.75914 0.0118754 0)
(1.74244 0.011265 0)
(1.72658 0.0106876 0)
(1.71152 0.0101402 0)
(1.69721 0.00962056 0)
(1.68363 0.00912626 0)
(1.67072 0.00865527 0)
(1.65847 0.00820569 0)
(1.64684 0.00777575 0)
(1.63581 0.00736383 0)
(1.62535 0.00696841 0)
(1.61545 0.0065881 0)
(1.60607 0.00622156 0)
(1.5972 0.00586755 0)
(1.58883 0.00552489 0)
(1.58094 0.00519246 0)
(1.57351 0.00486917 0)
(1.56653 0.00455399 0)
(1.55999 0.0042459 0)
(1.55389 0.00394392 0)
(1.5482 0.00364704 0)
(1.54294 0.00335428 0)
(1.53808 0.00306465 0)
(1.53363 0.00277712 0)
(1.52958 0.00249063 0)
(1.52593 0.00220408 0)
(1.52269 0.00191628 0)
(1.51985 0.00162596 0)
(1.51741 0.00133175 0)
(1.51539 0.00103211 0)
(1.51379 0.000725337 0)
(1.51262 0.000409498 0)
(1.51189 8.23654e-05 0)
(1.51162 -0.000258648 0)
(1.51183 -0.000616599 0)
(1.51254 -0.000995136 0)
(1.51379 -0.00139869 0)
(1.5156 -0.00183271 0)
(1.51802 -0.00230406 0)
(1.52111 -0.00282152 0)
(1.52493 -0.00339666 0)
(1.52956 -0.00404526 0)
(1.53512 -0.00478973 0)
(1.54175 -0.00566351 0)
(1.54963 -0.00671934 0)
(1.55904 -0.00804517 0)
(1.57036 -0.00979564 0)
(1.58419 -0.0122549 0)
(1.60142 -0.0159646 0)
(1.62352 -0.0219852 0)
(1.65283 -0.0324206 0)
(1.69315 -0.0513996 0)
(1.75114 -0.0870522 0)
(1.83616 -0.156479 0)
(1.93265 -0.293677 0)
(10.1768 1.34551 0)
(10.7882 2.53793 0)
(10.9413 2.66461 0)
(10.5996 2.36737 0)
(10.0102 1.96113 0)
(9.34908 1.57585 0)
(8.70071 1.25805 0)
(8.10422 1.01151 0)
(7.57309 0.824028 0)
(7.10647 0.681438 0)
(6.69784 0.57195 0)
(6.33941 0.486692 0)
(6.02374 0.419251 0)
(5.7443 0.365067 0)
(5.49554 0.32089 0)
(5.2729 0.284385 0)
(5.07258 0.253853 0)
(4.89148 0.228038 0)
(4.727 0.205998 0)
(4.57702 0.187017 0)
(4.43972 0.170542 0)
(4.3136 0.15614 0)
(4.19738 0.143469 0)
(4.08997 0.132255 0)
(3.99044 0.122278 0)
(3.89799 0.113358 0)
(3.81191 0.105346 0)
(3.7316 0.09812 0)
(3.65652 0.091577 0)
(3.58623 0.0856311 0)
(3.52029 0.0802097 0)
(3.45835 0.0752508 0)
(3.40009 0.0707014 0)
(3.34521 0.066516 0)
(3.29346 0.0626554 0)
(3.24461 0.0590853 0)
(3.19844 0.0557762 0)
(3.15478 0.052702 0)
(3.11344 0.0498397 0)
(3.07428 0.0471693 0)
(3.03716 0.0446729 0)
(3.00195 0.0423347 0)
(2.96852 0.0401405 0)
(2.93678 0.0380777 0)
(2.90663 0.0361349 0)
(2.87798 0.0343021 0)
(2.85074 0.03257 0)
(2.82485 0.0309303 0)
(2.80023 0.0293753 0)
(2.77681 0.0278983 0)
(2.75455 0.026493 0)
(2.73338 0.0251535 0)
(2.71325 0.0238746 0)
(2.69413 0.0226514 0)
(2.67596 0.0214794 0)
(2.65871 0.0203544 0)
(2.64234 0.0192724 0)
(2.62683 0.0182297 0)
(2.61213 0.0172229 0)
(2.59822 0.0162487 0)
(2.58508 0.015304 0)
(2.57269 0.0143858 0)
(2.56102 0.0134912 0)
(2.55005 0.0126173 0)
(2.53978 0.0117615 0)
(2.53018 0.010921 0)
(2.52125 0.010093 0)
(2.51296 0.00927491 0)
(2.50533 0.00846382 0)
(2.49834 0.00765687 0)
(2.49198 0.00685104 0)
(2.48626 0.00604311 0)
(2.48118 0.00522968 0)
(2.47674 0.00440699 0)
(2.47296 0.00357097 0)
(2.46983 0.00271701 0)
(2.46738 0.00183995 0)
(2.46562 0.000933862 0)
(2.46457 -8.15109e-06 0)
(2.46426 -0.000994193 0)
(2.46474 -0.00203396 0)
(2.46603 -0.00313919 0)
(2.46819 -0.00432438 0)
(2.47128 -0.00560771 0)
(2.47539 -0.00701248 0)
(2.48059 -0.00856931 0)
(2.48703 -0.0103196 0)
(2.49484 -0.0123211 0)
(2.50422 -0.0146578 0)
(2.51544 -0.0174562 0)
(2.52884 -0.020915 0)
(2.54489 -0.0253575 0)
(2.56427 -0.0313265 0)
(2.58789 -0.0397535 0)
(2.61703 -0.0522572 0)
(2.65337 -0.0716427 0)
(2.69888 -0.102649 0)
(2.75541 -0.152991 0)
(2.82179 -0.234415 0)
(2.88141 -0.358559 0)
(10.0798 0.823391 0)
(10.5966 1.94648 0)
(11.0631 2.45325 0)
(11.2348 2.53052 0)
(11.1193 2.36869 0)
(10.8128 2.10342 0)
(10.4014 1.81884 0)
(9.94677 1.55619 0)
(9.48846 1.32961 0)
(9.04827 1.14019 0)
(8.63645 0.983874 0)
(8.25661 0.855243 0)
(7.9088 0.749066 0)
(7.59129 0.66088 0)
(7.30162 0.587078 0)
(7.03712 0.524807 0)
(6.7952 0.471839 0)
(6.57345 0.426429 0)
(6.36972 0.38721 0)
(6.18207 0.353104 0)
(6.00882 0.323253 0)
(5.84848 0.29697 0)
(5.69977 0.273701 0)
(5.56153 0.252997 0)
(5.43277 0.234485 0)
(5.3126 0.217863 0)
(5.20026 0.202875 0)
(5.09505 0.18931 0)
(4.99636 0.176988 0)
(4.90366 0.165759 0)
(4.81646 0.155494 0)
(4.73432 0.146081 0)
(4.65687 0.137427 0)
(4.58375 0.129449 0)
(4.51465 0.122077 0)
(4.44928 0.115247 0)
(4.38739 0.108906 0)
(4.32875 0.103007 0)
(4.27314 0.097507 0)
(4.22037 0.0923689 0)
(4.17027 0.0875598 0)
(4.12266 0.0830504 0)
(4.07742 0.0788144 0)
(4.03439 0.0748282 0)
(3.99346 0.0710708 0)
(3.95451 0.0675229 0)
(3.91744 0.0641675 0)
(3.88215 0.0609888 0)
(3.84855 0.0579726 0)
(3.81655 0.055106 0)
(3.78608 0.0523771 0)
(3.75708 0.0497749 0)
(3.72946 0.0472895 0)
(3.70319 0.0449116 0)
(3.67819 0.0426326 0)
(3.65442 0.0404445 0)
(3.63183 0.0383399 0)
(3.61038 0.0363118 0)
(3.59003 0.0343535 0)
(3.57073 0.0324588 0)
(3.55247 0.0306219 0)
(3.5352 0.0288369 0)
(3.5189 0.0270985 0)
(3.50354 0.0254012 0)
(3.48911 0.0237398 0)
(3.47558 0.0221093 0)
(3.46294 0.0205044 0)
(3.45117 0.0189199 0)
(3.44026 0.0173507 0)
(3.43021 0.0157912 0)
(3.42101 0.0142358 0)
(3.41265 0.0126786 0)
(3.40513 0.0111131 0)
(3.39847 0.00953243 0)
(3.39266 0.00792905 0)
(3.38772 0.0062945 0)
(3.38367 0.00461929 0)
(3.38052 0.00289257 0)
(3.3783 0.00110178 0)
(3.37704 -0.0007678 0)
(3.37679 -0.00273371 0)
(3.37759 -0.00481714 0)
(3.3795 -0.0070441 0)
(3.38259 -0.00944709 0)
(3.38696 -0.0120675 0)
(3.39271 -0.0149592 0)
(3.39999 -0.0181939 0)
(3.40894 -0.0218701 0)
(3.4198 -0.0261265 0)
(3.43283 -0.0311645 0)
(3.44836 -0.0372853 0)
(3.46685 -0.0449503 0)
(3.48884 -0.0548798 0)
(3.51501 -0.06821 0)
(3.5461 -0.0867292 0)
(3.58279 -0.113194 0)
(3.62526 -0.151649 0)
(3.67233 -0.207492 0)
(3.71952 -0.286471 0)
(3.75484 -0.389587 0)
(10.0426 0.546311 0)
(10.395 1.45866 0)
(10.8535 2.05159 0)
(11.2147 2.3375 0)
(11.3915 2.39308 0)
(11.3903 2.30044 0)
(11.2488 2.12891 0)
(11.0103 1.92722 0)
(10.7131 1.72425 0)
(10.3867 1.53468 0)
(10.0509 1.36454 0)
(9.71863 1.21508 0)
(9.39735 1.08518 0)
(9.09122 0.972759 0)
(8.80216 0.875501 0)
(8.53071 0.791194 0)
(8.2766 0.717868 0)
(8.03912 0.653832 0)
(7.81731 0.59766 0)
(7.61014 0.548162 0)
(7.41654 0.504347 0)
(7.23549 0.46539 0)
(7.066 0.430607 0)
(6.90717 0.399423 0)
(6.75815 0.371358 0)
(6.61819 0.346009 0)
(6.48658 0.323032 0)
(6.36268 0.302138 0)
(6.24591 0.283078 0)
(6.13575 0.265641 0)
(6.03172 0.249644 0)
(5.93337 0.23493 0)
(5.84032 0.221361 0)
(5.7522 0.208819 0)
(5.66868 0.197199 0)
(5.58946 0.186411 0)
(5.51427 0.176373 0)
(5.44286 0.167016 0)
(5.37499 0.158276 0)
(5.31044 0.150097 0)
(5.24904 0.14243 0)
(5.19059 0.135231 0)
(5.13493 0.128458 0)
(5.0819 0.122077 0)
(5.03138 0.116054 0)
(4.98322 0.110362 0)
(4.93731 0.104973 0)
(4.89353 0.0998624 0)
(4.85178 0.0950092 0)
(4.81197 0.090393 0)
(4.77401 0.0859953 0)
(4.73781 0.0817993 0)
(4.7033 0.0777891 0)
(4.67041 0.0739504 0)
(4.63907 0.0702698 0)
(4.60922 0.0667348 0)
(4.58081 0.0633335 0)
(4.55378 0.0600551 0)
(4.52809 0.0568892 0)
(4.5037 0.053826 0)
(4.48055 0.0508562 0)
(4.45862 0.0479706 0)
(4.43788 0.0451609 0)
(4.41828 0.0424184 0)
(4.39981 0.0397351 0)
(4.38245 0.0371029 0)
(4.36616 0.0345136 0)
(4.35094 0.0319592 0)
(4.33677 0.0294314 0)
(4.32363 0.0269217 0)
(4.31153 0.0244215 0)
(4.30045 0.0219214 0)
(4.29039 0.0194115 0)
(4.28136 0.0168813 0)
(4.27336 0.0143191 0)
(4.26641 0.011712 0)
(4.26051 0.00904569 0)
(4.25569 0.00630363 0)
(4.25198 0.00346696 0)
(4.24942 0.000513598 0)
(4.24803 -0.0025826 0)
(4.24787 -0.00585302 0)
(4.24901 -0.00933595 0)
(4.25152 -0.0130788 0)
(4.25549 -0.0171413 0)
(4.26103 -0.0216002 0)
(4.26827 -0.0265559 0)
(4.27738 -0.0321431 0)
(4.28854 -0.0385459 0)
(4.30199 -0.0460219 0)
(4.31802 -0.0549386 0)
(4.33696 -0.0658288 0)
(4.35915 -0.0794719 0)
(4.38494 -0.0970075 0)
(4.41457 -0.120077 0)
(4.44791 -0.150959 0)
(4.4841 -0.19258 0)
(4.52087 -0.248134 0)
(4.55364 -0.319775 0)
(4.5747 -0.405312 0)
(10.0236 0.385449 0)
(10.2537 1.09641 0)
(10.6178 1.64937 0)
(10.9919 2.01114 0)
(11.2854 2.19901 0)
(11.4637 2.24872 0)
(11.5247 2.20102 0)
(11.4833 2.09316 0)
(11.3614 1.95388 0)
(11.1819 1.80284 0)
(10.9644 1.65228 0)
(10.7243 1.50911 0)
(10.473 1.37671 0)
(10.2186 1.25627 0)
(9.96672 1.14777 0)
(9.72089 1.05053 0)
(9.48338 0.963573 0)
(9.25549 0.885844 0)
(9.03785 0.8163 0)
(8.83069 0.753976 0)
(8.63391 0.698 0)
(8.44726 0.6476 0)
(8.27035 0.6021 0)
(8.10275 0.560911 0)
(7.94399 0.523524 0)
(7.79358 0.489494 0)
(7.65105 0.458439 0)
(7.51593 0.430025 0)
(7.38779 0.403962 0)
(7.2662 0.379999 0)
(7.15078 0.357914 0)
(7.04115 0.337515 0)
(6.93696 0.318632 0)
(6.83789 0.301117 0)
(6.74364 0.284839 0)
(6.65393 0.269679 0)
(6.56851 0.255537 0)
(6.48713 0.242319 0)
(6.40956 0.229944 0)
(6.3356 0.218338 0)
(6.26505 0.207437 0)
(6.19774 0.19718 0)
(6.1335 0.187514 0)
(6.07216 0.178392 0)
(6.0136 0.16977 0)
(5.95766 0.161609 0)
(5.90423 0.153872 0)
(5.85319 0.146526 0)
(5.80442 0.139542 0)
(5.75784 0.132892 0)
(5.71334 0.12655 0)
(5.67083 0.120494 0)
(5.63024 0.114701 0)
(5.59149 0.109152 0)
(5.5545 0.103828 0)
(5.51921 0.0987109 0)
(5.48557 0.0937855 0)
(5.4535 0.0890361 0)
(5.42296 0.084448 0)
(5.3939 0.0800076 0)
(5.36628 0.0757018 0)
(5.34006 0.071518 0)
(5.31519 0.067444 0)
(5.29164 0.0634682 0)
(5.26939 0.059579 0)
(5.2484 0.0557649 0)
(5.22866 0.0520149 0)
(5.21014 0.0483173 0)
(5.19282 0.0446609 0)
(5.17669 0.0410337 0)
(5.16174 0.0374236 0)
(5.14797 0.0338176 0)
(5.13536 0.0302023 0)
(5.12392 0.0265629 0)
(5.11366 0.0228836 0)
(5.10458 0.0191467 0)
(5.0967 0.0153327 0)
(5.09004 0.0114193 0)
(5.08462 0.00738128 0)
(5.08048 0.00318903 0)
(5.07765 -0.00119203 0)
(5.07619 -0.00580318 0)
(5.07615 -0.0106942 0)
(5.0776 -0.0159263 0)
(5.08062 -0.0215754 0)
(5.08532 -0.0277374 0)
(5.09181 -0.0345355 0)
(5.10022 -0.0421308 0)
(5.11071 -0.0507367 0)
(5.12347 -0.060641 0)
(5.13868 -0.0722366 0)
(5.15654 -0.0860633 0)
(5.1772 -0.102865 0)
(5.20073 -0.123653 0)
(5.22697 -0.149773 0)
(5.25536 -0.182913 0)
(5.28461 -0.224976 0)
(5.31238 -0.277631 0)
(5.33496 -0.341301 0)
(5.34756 -0.413349 0)
(10.0134 0.28391 0)
(10.1646 0.837065 0)
(10.4345 1.31424 0)
(10.7555 1.67857 0)
(11.061 1.92435 0)
(11.3107 2.06192 0)
(11.4852 2.11007 0)
(11.5794 2.09097 0)
(11.5989 2.02568 0)
(11.5548 1.93166 0)
(11.46 1.82213 0)
(11.3269 1.70644 0)
(11.1665 1.59079 0)
(10.9878 1.479 0)
(10.7977 1.37323 0)
(10.6018 1.27455 0)
(10.404 1.18329 0)
(10.2072 1.09938 0)
(10.0136 1.02248 0)
(9.82461 0.952127 0)
(9.64116 0.887797 0)
(9.46386 0.828968 0)
(9.29306 0.775129 0)
(9.12892 0.725802 0)
(8.97145 0.680547 0)
(8.82059 0.638964 0)
(8.67619 0.600692 0)
(8.53807 0.565405 0)
(8.406 0.532814 0)
(8.27977 0.502659 0)
(8.15912 0.47471 0)
(8.04382 0.44876 0)
(7.93363 0.424625 0)
(7.8283 0.402139 0)
(7.72763 0.381156 0)
(7.63138 0.361544 0)
(7.53934 0.343184 0)
(7.45132 0.32597 0)
(7.36713 0.309806 0)
(7.28658 0.294605 0)
(7.20951 0.28029 0)
(7.13575 0.266789 0)
(7.06515 0.254038 0)
(6.99756 0.24198 0)
(6.93287 0.23056 0)
(6.87092 0.21973 0)
(6.81162 0.209446 0)
(6.75484 0.199667 0)
(6.70048 0.190356 0)
(6.64843 0.181478 0)
(6.59862 0.173001 0)
(6.55094 0.164895 0)
(6.50532 0.157134 0)
(6.46168 0.149692 0)
(6.41995 0.142546 0)
(6.38007 0.135672 0)
(6.34196 0.12905 0)
(6.30557 0.12266 0)
(6.27085 0.116485 0)
(6.23775 0.110505 0)
(6.20622 0.104704 0)
(6.17622 0.0990661 0)
(6.1477 0.0935752 0)
(6.12064 0.0882161 0)
(6.09499 0.0829739 0)
(6.07074 0.0778338 0)
(6.04785 0.0727812 0)
(6.02631 0.0678013 0)
(6.00609 0.0628793 0)
(5.98718 0.0579999 0)
(5.96956 0.0531474 0)
(5.95323 0.0483052 0)
(5.93818 0.0434559 0)
(5.92441 0.0385808 0)
(5.91192 0.0336597 0)
(5.90072 0.0286704 0)
(5.89083 0.0235882 0)
(5.88225 0.0183853 0)
(5.87502 0.0130303 0)
(5.86915 0.00748674 0)
(5.86469 0.00171236 0)
(5.86168 -0.00434284 0)
(5.86016 -0.0107385 0)
(5.86021 -0.017547 0)
(5.86188 -0.0248567 0)
(5.86526 -0.0327775 0)
(5.87044 -0.0414473 0)
(5.87753 -0.0510419 0)
(5.88662 -0.0617871 0)
(5.89785 -0.0739765 0)
(5.9113 -0.0879935 0)
(5.92704 -0.10434 0)
(5.94508 -0.123667 0)
(5.96527 -0.146805 0)
(5.98724 -0.174771 0)
(6.01024 -0.208725 0)
(6.03293 -0.249801 0)
(6.0533 -0.298745 0)
(6.06861 -0.355249 0)
(6.07586 -0.417028 0)
(10.0083 0.218026 0)
(10.1103 0.654687 0)
(10.3067 1.05488 0)
(10.5624 1.38927 0)
(10.8345 1.64631 0)
(11.0904 1.82546 0)
(11.3083 1.93306 0)
(11.4751 1.97993 0)
(11.586 1.97873 0)
(11.6422 1.94184 0)
(11.6491 1.88014 0)
(11.6138 1.80251 0)
(11.5438 1.71581 0)
(11.4465 1.62504 0)
(11.3284 1.53374 0)
(11.195 1.44427 0)
(11.0509 1.35813 0)
(10.8999 1.2762 0)
(10.7449 1.19893 0)
(10.5882 1.12646 0)
(10.4316 1.05878 0)
(10.2765 0.995722 0)
(10.1238 0.937062 0)
(9.97434 0.882538 0)
(9.82857 0.831869 0)
(9.68687 0.784775 0)
(9.54948 0.740982 0)
(9.41654 0.700232 0)
(9.28811 0.662279 0)
(9.16419 0.626897 0)
(9.04475 0.593875 0)
(8.92971 0.56302 0)
(8.81898 0.534157 0)
(8.71246 0.507125 0)
(8.61002 0.481775 0)
(8.51155 0.457974 0)
(8.4169 0.435599 0)
(8.32594 0.41454 0)
(8.23855 0.394693 0)
(8.1546 0.375968 0)
(8.07395 0.358277 0)
(7.99649 0.341545 0)
(7.92209 0.3257 0)
(7.85064 0.310676 0)
(7.78203 0.296415 0)
(7.71614 0.28286 0)
(7.65289 0.269962 0)
(7.59216 0.257673 0)
(7.53387 0.24595 0)
(7.47793 0.234753 0)
(7.42426 0.224046 0)
(7.37277 0.213792 0)
(7.3234 0.203961 0)
(7.27606 0.194522 0)
(7.2307 0.185446 0)
(7.18725 0.176707 0)
(7.14565 0.168281 0)
(7.10585 0.160143 0)
(7.06779 0.152271 0)
(7.03143 0.144643 0)
(6.99671 0.137239 0)
(6.96361 0.130039 0)
(6.93207 0.123025 0)
(6.90207 0.116177 0)
(6.87357 0.109477 0)
(6.84654 0.102907 0)
(6.82096 0.0964487 0)
(6.7968 0.0900851 0)
(6.77405 0.0837975 0)
(6.75268 0.0775672 0)
(6.73269 0.0713752 0)
(6.71406 0.0652013 0)
(6.69679 0.0590243 0)
(6.68088 0.0528219 0)
(6.66632 0.0465695 0)
(6.65312 0.0402407 0)
(6.64129 0.0338061 0)
(6.63085 0.027233 0)
(6.6218 0.0204843 0)
(6.61418 0.013518 0)
(6.60802 0.00628511 0)
(6.60334 -0.00127127 0)
(6.6002 -0.00921838 0)
(6.59863 -0.0176364 0)
(6.59869 -0.0266221 0)
(6.60044 -0.0362931 0)
(6.60394 -0.0467942 0)
(6.60927 -0.0583046 0)
(6.61647 -0.0710481 0)
(6.62561 -0.0853049 0)
(6.6367 -0.101426 0)
(6.64971 -0.11985 0)
(6.66454 -0.141112 0)
(6.68091 -0.165855 0)
(6.69836 -0.194804 0)
(6.71611 -0.228705 0)
(6.73297 -0.268175 0)
(6.74733 -0.313439 0)
(6.75722 -0.363937 0)
(6.76075 -0.417875 0)
(10.0055 0.173545 0)
(10.0768 0.52509 0)
(10.2204 0.858697 0)
(10.4186 1.15342 0)
(10.6449 1.39818 0)
(10.8768 1.58886 0)
(11.096 1.72603 0)
(11.2886 1.81386 0)
(11.4457 1.85887 0)
(11.5633 1.86859 0)
(11.6409 1.85056 0)
(11.6807 1.8117 0)
(11.6863 1.75801 0)
(11.6621 1.6944 0)
(11.613 1.62475 0)
(11.5433 1.55201 0)
(11.4572 1.47837 0)
(11.3582 1.40539 0)
(11.2495 1.33416 0)
(11.1337 1.26539 0)
(11.013 1.19952 0)
(10.8891 1.13679 0)
(10.7637 1.07732 0)
(10.6377 1.02108 0)
(10.5121 0.968038 0)
(10.3878 0.918067 0)
(10.2652 0.871037 0)
(10.1448 0.826794 0)
(10.027 0.785182 0)
(9.9119 0.746039 0)
(9.79978 0.709209 0)
(9.69075 0.67454 0)
(9.58487 0.641886 0)
(9.48217 0.61111 0)
(9.38268 0.582083 0)
(9.28637 0.554683 0)
(9.19322 0.528798 0)
(9.10317 0.504322 0)
(9.01618 0.481157 0)
(8.93219 0.459213 0)
(8.85111 0.438406 0)
(8.77289 0.418657 0)
(8.69745 0.399895 0)
(8.62471 0.382052 0)
(8.5546 0.365065 0)
(8.48704 0.348877 0)
(8.42196 0.333435 0)
(8.35928 0.318688 0)
(8.29894 0.304589 0)
(8.24086 0.291095 0)
(8.18498 0.278165 0)
(8.13123 0.265761 0)
(8.07955 0.253848 0)
(8.02989 0.242392 0)
(7.98217 0.231361 0)
(7.93636 0.220725 0)
(7.8924 0.210456 0)
(7.85024 0.200527 0)
(7.80983 0.190912 0)
(7.77114 0.181587 0)
(7.73412 0.172528 0)
(7.69872 0.163712 0)
(7.66493 0.155117 0)
(7.6327 0.146722 0)
(7.60201 0.138506 0)
(7.57283 0.130446 0)
(7.54512 0.122523 0)
(7.51889 0.114715 0)
(7.49409 0.107002 0)
(7.47072 0.0993604 0)
(7.44877 0.0917694 0)
(7.42822 0.0842051 0)
(7.40907 0.0766432 0)
(7.39131 0.0690575 0)
(7.37494 0.0614201 0)
(7.35997 0.0537006 0)
(7.3464 0.0458656 0)
(7.33425 0.0378781 0)
(7.32351 0.0296967 0)
(7.31423 0.0212744 0)
(7.3064 0.0125576 0)
(7.30007 0.00348422 0)
(7.29527 -0.0060179 0)
(7.29201 -0.0160336 0)
(7.29035 -0.0266635 0)
(7.29032 -0.0380276 0)
(7.29195 -0.0502702 0)
(7.29527 -0.0635653 0)
(7.30031 -0.0781237 0)
(7.30707 -0.0941999 0)
(7.31549 -0.1121 0)
(7.32549 -0.132189 0)
(7.33689 -0.154889 0)
(7.34936 -0.180672 0)
(7.36241 -0.210029 0)
(7.37533 -0.243409 0)
(7.38712 -0.281099 0)
(7.39653 -0.323056 0)
(7.40219 -0.368676 0)
(7.40286 -0.416594 0)
(10.004 0.142089 0)
(10.0556 0.430847 0)
(10.1623 0.71034 0)
(10.3152 0.966113 0)
(10.4981 1.18921 0)
(10.6963 1.37497 0)
(10.8964 1.52179 0)
(11.0867 1.63061 0)
(11.2583 1.70426 0)
(11.4051 1.74679 0)
(11.5235 1.76285 0)
(11.6125 1.75718 0)
(11.6726 1.73429 0)
(11.7057 1.69824 0)
(11.714 1.65253 0)
(11.7006 1.60008 0)
(11.6684 1.54323 0)
(11.6202 1.48386 0)
(11.5587 1.42341 0)
(11.4864 1.36296 0)
(11.4054 1.30332 0)
(11.3175 1.24504 0)
(11.2245 1.18853 0)
(11.1277 1.13405 0)
(11.0283 1.08176 0)
(10.9273 1.03172 0)
(10.8254 0.983973 0)
(10.7234 0.938488 0)
(10.6218 0.895218 0)
(10.521 0.854095 0)
(10.4215 0.815036 0)
(10.3236 0.777952 0)
(10.2273 0.742746 0)
(10.1331 0.709324 0)
(10.0409 0.677589 0)
(9.95089 0.647447 0)
(9.86316 0.618808 0)
(9.77774 0.591583 0)
(9.69466 0.565689 0)
(9.61394 0.541046 0)
(9.53558 0.517578 0)
(9.45956 0.495215 0)
(9.38588 0.473888 0)
(9.31449 0.453534 0)
(9.24537 0.434093 0)
(9.17849 0.415508 0)
(9.11381 0.397727 0)
(9.05128 0.3807 0)
(8.99086 0.364379 0)
(8.93251 0.34872 0)
(8.87618 0.333682 0)
(8.82184 0.319224 0)
(8.76943 0.30531 0)
(8.71892 0.291904 0)
(8.67026 0.278973 0)
(8.62341 0.266484 0)
(8.57834 0.254408 0)
(8.535 0.242714 0)
(8.49336 0.231376 0)
(8.45338 0.220366 0)
(8.41504 0.209658 0)
(8.3783 0.199228 0)
(8.34312 0.18905 0)
(8.30949 0.179101 0)
(8.27739 0.169357 0)
(8.24677 0.159795 0)
(8.21764 0.150391 0)
(8.18996 0.141122 0)
(8.16372 0.131963 0)
(8.1389 0.122891 0)
(8.1155 0.113881 0)
(8.09351 0.104906 0)
(8.07291 0.0959387 0)
(8.05371 0.0869505 0)
(8.03591 0.0779103 0)
(8.0195 0.0687845 0)
(8.00448 0.0595364 0)
(7.99088 0.0501259 0)
(7.97868 0.040508 0)
(7.96792 0.0306324 0)
(7.9586 0.0204423 0)
(7.95074 0.00987263 0)
(7.94436 -0.00115121 0)
(7.93947 -0.0127156 0)
(7.93611 -0.0249213 0)
(7.93428 -0.0378858 0)
(7.934 -0.0517476 0)
(7.93527 -0.066669 0)
(7.93807 -0.0828409 0)
(7.94236 -0.100486 0)
(7.94805 -0.119861 0)
(7.95502 -0.141259 0)
(7.96303 -0.164998 0)
(7.97176 -0.191413 0)
(7.98074 -0.220818 0)
(7.98934 -0.253458 0)
(7.99677 -0.289422 0)
(8.00208 -0.328539 0)
(8.0043 -0.370247 0)
(8.00261 -0.413514 0)
(10.003 0.118926 0)
(10.0416 0.360528 0)
(10.1226 0.596983 0)
(10.2414 0.818309 0)
(10.388 1.01767 0)
(10.5529 1.19093 0)
(10.7269 1.33594 0)
(10.9013 1.45225 0)
(11.0684 1.54082 0)
(11.2222 1.6036 0)
(11.3584 1.6432 0)
(11.4741 1.66259 0)
(11.5681 1.66485 0)
(11.6402 1.65297 0)
(11.691 1.62973 0)
(11.7217 1.59761 0)
(11.7342 1.55877 0)
(11.7301 1.51504 0)
(11.7114 1.46795 0)
(11.6801 1.41872 0)
(11.6378 1.36835 0)
(11.5864 1.31761 0)
(11.5273 1.26711 0)
(11.4619 1.21729 0)
(11.3915 1.16851 0)
(11.317 1.121 0)
(11.2394 1.07493 0)
(11.1596 1.03042 0)
(11.0782 0.987532 0)
(10.9957 0.946288 0)
(10.9128 0.906696 0)
(10.8299 0.868735 0)
(10.7472 0.832375 0)
(10.6652 0.797571 0)
(10.584 0.764272 0)
(10.5039 0.732421 0)
(10.425 0.70196 0)
(10.3475 0.672828 0)
(10.2715 0.644963 0)
(10.1971 0.618304 0)
(10.1244 0.592793 0)
(10.0534 0.568369 0)
(9.9841 0.544977 0)
(9.9166 0.522561 0)
(9.8509 0.50107 0)
(9.78699 0.480451 0)
(9.72489 0.460658 0)
(9.66459 0.441644 0)
(9.60608 0.423364 0)
(9.54934 0.405776 0)
(9.49437 0.388841 0)
(9.44113 0.372518 0)
(9.38961 0.356773 0)
(9.33979 0.341568 0)
(9.29164 0.326872 0)
(9.24515 0.31265 0)
(9.20028 0.298873 0)
(9.15701 0.28551 0)
(9.11532 0.272531 0)
(9.07519 0.259911 0)
(9.03659 0.24762 0)
(8.99951 0.235632 0)
(8.96391 0.223922 0)
(8.92979 0.212463 0)
(8.89712 0.201231 0)
(8.86589 0.1902 0)
(8.83608 0.179344 0)
(8.80768 0.168639 0)
(8.78068 0.158059 0)
(8.75505 0.147577 0)
(8.73081 0.137166 0)
(8.70793 0.126797 0)
(8.68642 0.116441 0)
(8.66627 0.106068 0)
(8.64748 0.0956423 0)
(8.63004 0.0851294 0)
(8.61397 0.07449 0)
(8.59927 0.0636814 0)
(8.58593 0.0526566 0)
(8.57398 0.0413634 0)
(8.56342 0.0297432 0)
(8.55426 0.0177301 0)
(8.5465 0.00524908 0)
(8.54016 -0.00778502 0)
(8.53524 -0.0214698 0)
(8.53174 -0.035917 0)
(8.52965 -0.0512552 0)
(8.52895 -0.0676313 0)
(8.52959 -0.0852126 0)
(8.5315 -0.104188 0)
(8.53458 -0.124767 0)
(8.53866 -0.147175 0)
(8.54352 -0.171647 0)
(8.54883 -0.198408 0)
(8.55417 -0.227645 0)
(8.55902 -0.259471 0)
(8.56274 -0.293862 0)
(8.56463 -0.330592 0)
(8.56399 -0.369173 0)
(8.56026 -0.408814 0)
(10.0023 0.10129 0)
(10.0321 0.306711 0)
(10.095 0.509003 0)
(10.1884 0.70115 0)
(10.3062 0.878017 0)
(10.4421 1.0362 0)
(10.59 1.17362 0)
(10.7435 1.28939 0)
(10.8968 1.38357 0)
(11.0448 1.457 0)
(11.1833 1.51105 0)
(11.3091 1.54748 0)
(11.4202 1.56824 0)
(11.5151 1.57539 0)
(11.5934 1.57096 0)
(11.6551 1.55686 0)
(11.7007 1.53487 0)
(11.7313 1.50659 0)
(11.7478 1.4734 0)
(11.7514 1.43651 0)
(11.7436 1.39693 0)
(11.7256 1.35553 0)
(11.6985 1.31299 0)
(11.6637 1.2699 0)
(11.6221 1.2267 0)
(11.5749 1.18377 0)
(11.5228 1.14138 0)
(11.4668 1.09976 0)
(11.4075 1.05907 0)
(11.3456 1.01942 0)
(11.2818 0.980906 0)
(11.2164 0.943572 0)
(11.15 0.907453 0)
(11.0829 0.872559 0)
(11.0154 0.83889 0)
(10.948 0.806433 0)
(10.8807 0.775164 0)
(10.8138 0.745056 0)
(10.7476 0.716075 0)
(10.682 0.688186 0)
(10.6174 0.661349 0)
(10.5538 0.635523 0)
(10.4913 0.610669 0)
(10.43 0.586744 0)
(10.3699 0.563707 0)
(10.311 0.541517 0)
(10.2536 0.520134 0)
(10.1974 0.499519 0)
(10.1427 0.479634 0)
(10.0894 0.46044 0)
(10.0375 0.441902 0)
(9.98697 0.423985 0)
(9.93792 0.406654 0)
(9.89029 0.389877 0)
(9.8441 0.373621 0)
(9.79934 0.357855 0)
(9.75599 0.342549 0)
(9.71405 0.327673 0)
(9.67352 0.3132 0)
(9.63438 0.2991 0)
(9.59662 0.285346 0)
(9.56023 0.271912 0)
(9.52521 0.25877 0)
(9.49154 0.245895 0)
(9.45922 0.23326 0)
(9.42822 0.220839 0)
(9.39856 0.208605 0)
(9.37021 0.196533 0)
(9.34317 0.184594 0)
(9.31744 0.172761 0)
(9.293 0.161006 0)
(9.26987 0.149298 0)
(9.24802 0.137607 0)
(9.22747 0.1259 0)
(9.20821 0.114141 0)
(9.19024 0.102293 0)
(9.17357 0.0903159 0)
(9.15819 0.0781659 0)
(9.14412 0.0657948 0)
(9.13135 0.0531495 0)
(9.11988 0.0401715 0)
(9.10973 0.0267954 0)
(9.10088 0.0129481 0)
(9.09335 -0.00145241 0)
(9.08712 -0.0164983 0)
(9.08217 -0.0322931 0)
(9.07848 -0.0489529 0)
(9.07602 -0.0666074 0)
(9.07471 -0.0853996 0)
(9.07448 -0.105485 0)
(9.07519 -0.127031 0)
(9.07668 -0.150206 0)
(9.07872 -0.175176 0)
(9.08103 -0.202084 0)
(9.08323 -0.231032 0)
(9.08488 -0.262046 0)
(9.0855 -0.295042 0)
(9.08455 -0.329784 0)
(9.08153 -0.365853 0)
(9.07604 -0.40264 0)
(10.0018 0.0874802 0)
(10.0254 0.264537 0)
(10.0752 0.439506 0)
(10.1499 0.607332 0)
(10.2453 0.764137 0)
(10.3574 0.907186 0)
(10.4819 1.03467 0)
(10.6144 1.14561 0)
(10.7506 1.23972 0)
(10.8865 1.31727 0)
(11.0184 1.37895 0)
(11.1436 1.42577 0)
(11.2597 1.45894 0)
(11.365 1.47981 0)
(11.4582 1.48978 0)
(11.5389 1.49024 0)
(11.6067 1.48256 0)
(11.6617 1.468 0)
(11.7045 1.44774 0)
(11.7356 1.42282 0)
(11.7558 1.3942 0)
(11.7658 1.36268 0)
(11.7667 1.32897 0)
(11.7591 1.29368 0)
(11.7441 1.25732 0)
(11.7225 1.22032 0)
(11.695 1.18302 0)
(11.6625 1.14572 0)
(11.6255 1.10865 0)
(11.5847 1.07201 0)
(11.5407 1.03593 0)
(11.4941 1.00053 0)
(11.4452 0.965902 0)
(11.3946 0.93211 0)
(11.3426 0.899196 0)
(11.2895 0.867191 0)
(11.2356 0.83611 0)
(11.1813 0.805959 0)
(11.1266 0.776735 0)
(11.072 0.748428 0)
(11.0174 0.721024 0)
(10.9631 0.694502 0)
(10.9092 0.668841 0)
(10.8559 0.644015 0)
(10.8032 0.619997 0)
(10.7513 0.59676 0)
(10.7002 0.574273 0)
(10.6499 0.552508 0)
(10.6006 0.531434 0)
(10.5523 0.511021 0)
(10.505 0.49124 0)
(10.4588 0.472059 0)
(10.4136 0.453451 0)
(10.3696 0.435386 0)
(10.3267 0.417834 0)
(10.285 0.400769 0)
(10.2444 0.384162 0)
(10.205 0.367984 0)
(10.1668 0.352211 0)
(10.1297 0.336814 0)
(10.0939 0.321766 0)
(10.0592 0.307043 0)
(10.0258 0.292617 0)
(9.99349 0.278462 0)
(9.96241 0.264553 0)
(9.93252 0.250862 0)
(9.90382 0.237363 0)
(9.87631 0.22403 0)
(9.85 0.210834 0)
(9.82487 0.197747 0)
(9.80093 0.18474 0)
(9.77819 0.171782 0)
(9.75663 0.158841 0)
(9.73627 0.145883 0)
(9.71711 0.132874 0)
(9.69913 0.119774 0)
(9.68236 0.106543 0)
(9.66679 0.0931373 0)
(9.65242 0.0795079 0)
(9.63925 0.0656028 0)
(9.62728 0.0513645 0)
(9.61651 0.0367297 0)
(9.60694 0.0216287 0)
(9.59855 0.00598428 0)
(9.59133 -0.0102887 0)
(9.58524 -0.027284 0)
(9.58027 -0.0451044 0)
(9.57634 -0.0638616 0)
(9.57339 -0.0836753 0)
(9.57133 -0.104671 0)
(9.57002 -0.126978 0)
(9.5693 -0.150719 0)
(9.56895 -0.176006 0)
(9.56872 -0.202925 0)
(9.5683 -0.231515 0)
(9.56731 -0.261755 0)
(9.56539 -0.293529 0)
(9.56212 -0.326611 0)
(9.55715 -0.360647 0)
(9.55019 -0.39516 0)
(10.0015 0.0764129 0)
(10.0206 0.230778 0)
(10.0608 0.383634 0)
(10.1214 0.531242 0)
(10.1995 0.670629 0)
(10.2925 0.799603 0)
(10.3973 0.916634 0)
(10.5108 1.02079 0)
(10.6298 1.11167 0)
(10.7513 1.18928 0)
(10.8726 1.25396 0)
(10.991 1.30626 0)
(11.1046 1.34696 0)
(11.2116 1.37692 0)
(11.3106 1.39708 0)
(11.4006 1.40845 0)
(11.4811 1.412 0)
(11.5517 1.40871 0)
(11.6122 1.3995 0)
(11.6629 1.38523 0)
(11.704 1.3667 0)
(11.7359 1.34463 0)
(11.7592 1.31967 0)
(11.7743 1.2924 0)
(11.782 1.26332 0)
(11.7829 1.23287 0)
(11.7774 1.20143 0)
(11.7664 1.16932 0)
(11.7503 1.13681 0)
(11.7296 1.10414 0)
(11.705 1.07151 0)
(11.6769 1.03906 0)
(11.6457 1.00692 0)
(11.6119 0.975217 0)
(11.5758 0.944017 0)
(11.5378 0.913391 0)
(11.4983 0.883389 0)
(11.4575 0.854048 0)
(11.4156 0.825393 0)
(11.3729 0.797442 0)
(11.3297 0.770202 0)
(11.286 0.743676 0)
(11.2421 0.717862 0)
(11.1982 0.692751 0)
(11.1543 0.668333 0)
(11.1106 0.644592 0)
(11.0672 0.621514 0)
(11.0242 0.599079 0)
(10.9816 0.577267 0)
(10.9396 0.556057 0)
(10.8983 0.535428 0)
(10.8576 0.515356 0)
(10.8176 0.495818 0)
(10.7784 0.47679 0)
(10.74 0.458249 0)
(10.7024 0.44017 0)
(10.6657 0.422529 0)
(10.63 0.405302 0)
(10.5951 0.388464 0)