/*--------------------------------*- C++ -*----------------------------------*\
| =========                 |                                                 |
| \\      /  F ield         | OpenFOAM: The Open Source CFD Toolbox           |
|  \\    /   O peration     | Version:  2406                                  |
|   \\  /    A nd           | Website:  www.openfoam.com                      |
|    \\/     M anipulation  |                                                 |
\*---------------------------------------------------------------------------*/
FoamFile
{
    version     2.0;
    format      ascii;
    arch        "LSB;label=32;scalar=64";
    class       volScalarField;
    location    "62";
    object      p;
}
// * * * * * * * * * * * * * * * * * * * * * * * * * * * * * * * * * * * * * //

dimensions      [0 2 -2 0 0 0 0];

internalField   nonuniform List<scalar> 
1900
(
29.012
16.19
6.34622
0.823142
-3.43105
-7.44986
-11.0699
-14.2857
-17.2984
-20.3788
14.5058
9.68796
4.59027
0.632874
-2.99524
-6.63185
-10.0535
-13.1416
-15.943
-18.4784
9.61171
8.12166
5.01474
1.53046
-1.81338
-5.0516
-8.15244
-11.008
-13.5289
-15.6113
7.75357
6.89826
4.62327
1.66219
-1.31209
-4.18565
-6.96466
-9.56052
-11.8614
-13.7727
6.99527
6.24242
4.38245
1.82006
-0.891051
-3.55434
-6.13931
-8.56476
-10.7192
-12.5226
7.23007
6.48789
4.65203
2.12964
-0.525027
-3.11617
-5.61393
-7.94034
-9.99507
-11.7211
8.4428
7.62086
5.42085
2.58349
-0.21758
-2.86799
-5.37334
-7.65491
-9.63315
-11.2843
10.713
9.27194
6.29487
3.03413
0.00301525
-2.82938
-5.42312
-7.68017
-9.57421
-11.1355
16.0047
11.2789
6.40873
2.79963
-0.375085
-3.42925
-6.10804
-8.2754
-10.0052
-11.4049
30.8796
18.1446
8.54696
3.39
-0.387592
-3.77744
-6.5766
-8.73308
-10.4093
-11.7495
-18.5708
-18.5988
-18.6228
-18.631
-18.624
-18.6026
-18.5665
-18.5144
-18.4445
-18.3551
-18.2446
-18.1113
-17.9539
-17.7708
-17.5606
-17.3221
-17.0538
-16.7547
-16.4234
-16.0589
-15.6603
-15.2269
-14.7582
-14.2543
-13.7155
-13.1427
-12.5372
-11.901
-11.2368
-10.5479
-9.8381
-9.11208
-8.37488
-7.63201
-6.88928
-6.15269
-5.42822
-4.72173
-4.03877
-3.38441
-2.76318
-2.17892
-1.63474
-1.13292
-0.674972
-0.261667
0.107128
0.432118
0.714451
0.955897
1.15867
1.32529
1.45851
1.56123
1.63643
1.68706
1.71602
1.72611
1.71997
1.70005
1.66863
1.62776
1.57929
1.52485
1.46586
1.40357
1.33902
1.27308
1.20649
1.13984
1.07358
1.00807
0.943571
0.880268
0.818273
0.757643
0.698389
0.640489
0.583889
0.528518
0.474283
0.421083
0.36881
0.317353
0.266605
0.216468
0.166864
0.117724
0.0688889
0.0197656
-18.5389
-18.568
-18.5888
-18.5933
-18.5848
-18.5637
-18.5289
-18.4785
-18.4105
-18.3231
-18.2148
-18.0837
-17.9285
-17.7478
-17.5401
-17.3042
-17.0388
-16.7427
-16.4148
-16.054
-15.6593
-15.2301
-14.766
-14.2669
-13.733
-13.1652
-12.5646
-11.9332
-11.2735
-10.5888
-9.88299
-9.16049
-8.42633
-7.68599
-6.94531
-6.21029
-5.48692
-4.78109
-4.09839
-3.44395
-2.82231
-2.23741
-1.69249
-1.1897
-0.730585
-0.316039
0.0539954
0.380218
0.663915
0.906876
1.1113
1.27971
1.41484
1.5196
1.59692
1.64977
1.68102
1.69344
1.68965
1.67208
1.643
1.60442
1.55818
1.5059
1.44898
1.38866
1.32596
1.26176
1.19679
1.13162
1.06673
1.00246
0.939093
0.876801
0.815707
0.755874
0.697321
0.640033
0.583963
0.529046
0.475199
0.422325
0.370321
0.319082
0.268507
0.218483
0.168966
0.11981
0.0712229
0.0180645
-18.518
-18.5521
-18.5731
-18.5757
-18.5671
-18.5478
-18.5156
-18.4682
-18.4035
-18.3193
-18.2141
-18.0862
-17.9342
-17.7566
-17.5523
-17.3199
-17.0582
-16.766
-16.4423
-16.0858
-15.6958
-15.2713
-14.812
-14.3176
-13.7882
-13.2244
-12.6275
-11.9994
-11.3425
-10.6602
-9.95614
-9.23481
-8.50123
-7.76095
-7.0199
-6.28411
-5.55962
-4.85246
-4.16843
-3.51267
-2.8898
-2.30382
-1.75777
-1.25392
-0.793798
-0.378182
-0.00704367
0.320327
0.605232
0.849473
1.05527
1.22516
1.3619
1.4684
1.5476
1.60245
1.63583
1.65049
1.64904
1.6339
1.60728
1.57121
1.52748
1.4777
1.42325
1.36533
1.30497
1.24303
1.1802
1.11708
1.0541
0.99163
0.929923
0.869164
0.809474
0.750918
0.693519
0.637268
0.582123
0.528025
0.474894
0.42264
0.371166
0.320367
0.270145
0.220379
0.171045
0.12173
0.0738111
0.0153212
-18.5412
-18.5799
-18.6026
-18.6053
-18.5982
-18.5814
-18.5522
-18.5077
-18.4457
-18.3642
-18.2614
-18.1358
-17.9861
-17.8109
-17.6091
-17.3794
-17.1205
-16.8315
-16.511
-16.158
-15.7714
-15.3504
-14.8942
-14.4024
-13.8751
-13.313
-12.7174
-12.0901
-11.4335
-10.7508
-10.0458
-9.32307
-8.58783
-7.84584
-7.1031
-6.36578
-5.63997
-4.9317
-4.2467
-3.59018
-2.9668
-2.38051
-1.8344
-1.33075
-0.871004
-0.455842
-0.0851658
0.241805
0.526442
0.770613
0.976591
1.14695
1.28449
1.39211
1.47279
1.52946
1.56499
1.58209
1.58336
1.57117
1.5477
1.51494
1.47464
1.42835
1.37744
1.32306
1.2662
1.20768
1.14819
1.08829
1.02839
0.968847
0.9099
0.851727
0.794441
0.738106
0.682751
0.628366
0.574916
0.52234
0.470566
0.419508
0.369073
0.31916
0.269681
0.220488
0.171634
0.122276
0.0754786
0.0112832
-18.6366
-18.6729
-18.6921
-18.6918
-18.6836
-18.6665
-18.6369
-18.592
-18.5294
-18.4472
-18.3438
-18.2178
-18.0678
-17.8926
-17.691
-17.4618
-17.2037
-16.9156
-16.5962
-16.2442
-15.8586
-15.4383
-14.9824
-14.4909
-13.9637
-13.4016
-12.8058
-12.1782
-11.5212
-10.838
-10.1326
-9.40955
-8.67417
-7.93223
-7.18986
-6.45335
-5.72896
-5.02273
-4.3404
-3.68715
-3.06751
-2.48528
-1.94343
-1.44409
-0.988558
-0.577341
-0.210216
0.113714
0.395924
0.638365
0.843365
1.01354
1.15168
1.26071
1.34354
1.40308
1.44213
1.46335
1.46924
1.46211
1.44405
1.41698
1.38255
1.34226
1.29739
1.24904
1.19813
1.14545
1.09162
1.03717
0.982498
0.927912
0.873644
0.819854
0.76665
0.714099
0.662231
0.611039
0.560487
0.510524
0.461083
0.412091
0.363465
0.315116
0.266974
0.218871
0.171
0.121992
0.0769284
0.00676946
-18.8311
-18.8479
-18.8475
-18.8324
-18.8135
-18.7878
-18.7506
-18.699
-18.6305
-18.5429
-18.4347
-18.3044
-18.1506
-17.9722
-17.7679
-17.5365
-17.2765
-16.987
-16.6667
-16.3141
-15.928
-15.5071
-15.0509
-14.5588
-14.0311
-13.4684
-12.8718
-12.2435
-11.5861
-10.9031
-10.1985
-9.47735
-8.74492
-8.00716
-7.27021
-6.54032
-5.82368
-5.12621
-4.45346
-3.81039
-3.2013
-2.62972
-2.09838
-1.60915
-1.16308
-0.76046
-0.400876
-0.0832748
0.193938
0.432794
0.635666
0.80517
0.94408
1.05524
1.1415
1.20564
1.25035
1.27817
1.29145
1.29236
1.28287
1.26474
1.23953
1.2086
1.17312
1.13409
1.09237
1.04865
1.00351
0.957403
0.910696
0.863664
0.816513
0.769391
0.722404
0.675621
0.629069
0.582735
0.536593
0.490603
0.444718
0.398881
0.353032
0.307103
0.261056
0.214733
0.168466
0.120435
0.0777361
0.0021075
-19.1529
-19.1128
-19.0565
-19.0011
-18.9545
-18.9082
-18.8545
-18.7895
-18.71
-18.6136
-18.4984
-18.3627
-18.2045
-18.0224
-17.8153
-17.5816
-17.3196
-17.028
-16.7053
-16.35
-15.9611
-15.5376
-15.0788
-14.5844
-14.0546
-13.4904
-12.8933
-12.2654
-11.6097
-10.93
-10.2304
-9.51617
-8.79266
-8.06581
-7.34167
-6.62635
-5.92579
-5.24564
-4.59107
-3.96666
-3.37633
-2.82319
-2.30959
-1.83703
-1.40625
-1.01725
-0.669376
-0.36141
-0.091642
0.142021
0.341959
0.510748
0.651071
0.765648
0.85717
0.92825
0.981374
1.01887
1.04291
1.05543
1.05822
1.05285
1.04069
1.02295
1.00066
0.97468
0.945756
0.914489
0.881369
0.846792
0.811064
0.774423
0.73705
0.699095
0.660661
0.621794
0.582505
0.542798
0.502667
0.462096
0.421062
0.379535
0.337486
0.294882
0.251737
0.207896
0.163906
0.117502
0.0775801
-0.00195263
-19.6799
-19.4689
-19.273
-19.1394
-19.0486
-18.9745
-18.9027
-18.8255
-18.7372
-18.634
-18.5135
-18.3737
-18.2121
-18.0271
-17.8167
-17.5794
-17.3136
-17.0178
-16.6908
-16.3311
-15.9379
-15.5102
-15.0477
-14.5504
-14.0189
-13.4542
-12.8582
-12.2336
-11.5834
-10.9117
-10.2231
-9.52253
-8.81559
-8.108
-7.40559
-6.71412
-6.03911
-5.38571
-4.75855
-4.16168
-3.59844
-3.07144
-2.58251
-2.13275
-1.7225
-1.35146
-1.01873
-0.722939
-0.462279
-0.234645
-0.0377022
0.131017
0.274041
0.393883
0.493008
0.573769
0.63839
0.688927
0.727262
0.755092
0.773934
0.785122
0.789819
0.789025
0.783592
0.774239
0.761564
0.746055
0.728112
0.708051
0.686121
0.662527
0.637451
0.611008
0.583253
0.554226
0.523966
0.492498
0.459842
0.426008
0.391003
0.35483
0.317503
0.279034
0.239485
0.198765
0.157524
0.113374
0.0761509
-0.00431382
-20.8071
-19.9427
-19.4009
-19.1706
-19.0433
-18.9433
-18.8597
-18.7803
-18.6921
-18.5886
-18.4673
-18.3257
-18.1613
-17.9723
-17.7573
-17.515
-17.2438
-16.9423
-16.6091
-16.2433
-15.844
-15.4111
-14.9445
-14.4447
-13.9126
-13.3498
-12.7586
-12.1417
-11.5028
-10.8458
-10.1755
-9.49683
-8.81519
-8.13599
-7.46464
-6.80637
-6.16609
-5.54828
-4.95693
-4.39539
-3.86635
-3.37182
-2.91308
-2.49076
-2.10481
-1.75463
-1.4391
-1.15673
-0.905674
-0.68387
-0.489105
-0.31909
-0.171536
-0.0441971
0.0650774
0.158324
0.237429
0.304121
0.359954
0.406317
0.444432
0.475365
0.500032
0.519214
0.533569
0.543645
0.549896
0.552692
0.552329
0.549049
0.543069
0.534566
0.52364
0.510362
0.494805
0.477035
0.457107
0.435068
0.41096
0.384824
0.3567
0.326635
0.294685
0.260911
0.225437
0.188213
0.149992
0.108481
0.073286
-0.00385492
-23.0033
-20.5456
-19.3697
-19.094
-18.972
-18.8452
-18.7457
-18.6662
-18.58
-18.4757
-18.3521
-18.2076
-18.0394
-17.8452
-17.6239
-17.3745
-17.0959
-16.7867
-16.4458
-16.0725
-15.6667
-15.2287
-14.7591
-14.2589
-13.7297
-13.1733
-12.5922
-11.9895
-11.3688
-10.7343
-10.0905
-9.44222
-8.79445
-8.15216
-7.52018
-6.90308
-6.30505
-5.72982
-5.18059
-4.65997
-4.16998
-3.71196
-3.28667
-2.89424
-2.53428
-2.20592
-1.90789
-1.63864
-1.39636
-1.17912
-0.984886
-0.811653
-0.65743
-0.520315
-0.398519
-0.290385
-0.1944
-0.109206
-0.0335977
0.0334814
0.0929496
0.145592
0.192077
0.232962
0.268715
0.299717
0.326284
0.348668
0.367085
0.381723
0.392718
0.400168
0.404165
0.404796
0.402145
0.396283
0.38728
0.375202
0.360118
0.3421
0.321228
0.297587
0.271279
0.242412
0.21115
0.177536
0.142248
0.10352
0.0692374
0.000102653
-22.0822
-20.3411
-19.1406
-18.9096
-18.8423
-18.7077
-18.5828
-18.4903
-18.399
-18.2898
-18.1603
-18.0095
-17.8344
-17.6323
-17.4023
-17.1441
-16.8568
-16.5394
-16.1912
-15.8117
-15.4014
-14.9612
-14.4924
-13.9966
-13.4755
-12.9315
-12.3672
-11.7857
-11.1906
-10.5859
-9.97594
-9.36519
-8.75815
-8.15923
-7.57258
-7.00202
-6.45094
-5.92229
-5.41846
-4.94132
-4.49218
-4.07178
-3.68034
-3.3176
-2.98287
-2.67511
-2.39298
-2.13495
-1.89936
-1.68446
-1.48855
-1.30991
-1.14695
-0.998126
-0.862069
-0.737513
-0.623335
-0.518545
-0.422286
-0.333818
-0.252513
-0.177844
-0.109373
-0.0467396
0.0103502
0.0621348
0.10881
0.150533
0.187426
0.219603
0.247164
0.270201
0.288801
0.303046
0.313017
0.318794
0.320461
0.318107
0.311827
0.301726
0.287916
0.270519
0.249675
0.225536
0.198294
0.168064
0.135401
0.0992967
0.0646967
0.00745861
-19.7567
-19.1605
-18.4606
-18.3174
-18.335
-18.2853
-18.2067
-18.1383
-18.0657
-17.9706
-17.8487
-17.7003
-17.5241
-17.319
-17.0849
-16.8219
-16.5299
-16.2083
-15.8567
-15.4755
-15.0655
-14.6282
-14.1655
-13.6795
-13.1723
-12.6463
-12.1044
-11.5496
-10.9855
-10.4158
-9.84454
-9.2757
-8.71325
-8.16094
-7.62219
-7.10002
-6.59703
-6.11533
-5.65657
-5.22189
-4.81195
-4.42697
-4.06674
-3.7307
-3.41798
-3.12747
-2.8579
-2.60786
-2.37592
-2.16066
-1.96069
-1.77469
-1.60142
-1.4398
-1.28881
-1.14758
-1.01535
-0.891457
-0.775353
-0.666573
-0.564732
-0.469517
-0.380675
-0.298007
-0.221351
-0.150594
-0.0856689
-0.0264799
0.0270788
0.075089
0.117621
0.154747
0.186536
0.213067
0.234421
0.250692
0.261979
0.268392
0.27005
0.267082
0.259627
0.247838
0.231883
0.211943
0.188226
0.160924
0.13039
0.0965205
0.060682
0.0172891
-16.9411
-17.3518
-17.3791
-17.4834
-17.6304
-17.7029
-17.7085
-17.687
-17.6451
-17.573
-17.4663
-17.3259
-17.1534
-16.9498
-16.7158
-16.4521
-16.1589
-15.8362
-15.4846
-15.1049
-14.6986
-14.2678
-13.8148
-13.342
-12.852
-12.3473
-11.8307
-11.3055
-10.7748
-10.2422
-9.71119
-9.18531
-8.66784
-8.16179
-7.6698
-7.19409
-6.73646
-6.29829
-5.88049
-5.48362
-5.10782
-4.75293
-4.41846
-4.10373
-3.80781
-3.52968
-3.26822
-3.02229
-2.79077
-2.57256
-2.36664
-2.17207
-1.988
-1.81369
-1.64848
-1.49183
-1.34326
-1.20238
-1.06888
-0.942494
-0.823022
-0.710307
-0.60422
-0.504692
-0.411709
-0.325238
-0.245178
-0.171459
-0.104032
-0.0428609
0.0121038
0.0609142
0.10364
0.140356
0.171155
0.196137
0.215417
0.229118
0.237376
0.240336
0.238158
0.231011
0.219085
0.202578
0.181706
0.156717
0.127775
0.0956169
0.0581731
0.0280616
-15.1747
-15.9963
-16.4144
-16.7016
-16.9431
-17.1073
-17.1919
-17.2237
-17.2166
-17.1688
-17.0784
-16.9479
-16.7809
-16.5802
-16.3474
-16.0836
-15.7896
-15.4666
-15.1156
-14.7384
-14.3371
-13.9143
-13.4727
-13.0148
-12.5434
-12.0612
-11.5711
-11.0759
-10.5788
-10.0828
-9.59096
-9.10603
-8.63063
-8.16699
-7.71699
-7.28212
-6.86348
-6.46181
-6.07754
-5.71079
-5.3614
-5.02901
-4.71306
-4.41289
-4.12768
-3.85661
-3.59882
-3.35346
-3.11973
-2.89686
-2.68416
-2.48103
-2.28693
-2.1014
-1.92404
-1.75454
-1.59264
-1.43812
-1.29082
-1.15063
-1.01746
-0.891232
-0.771973
-0.65972
-0.5544
-0.455947
-0.364336
-0.279566
-0.201619
-0.130476
-0.066095
-0.00842827
0.0425942
0.0870496
0.125035
0.156656
0.182036
0.201304
0.214608
0.2221
0.223951
0.220339
0.211463
0.197529
0.178756
0.155423
0.127585
0.0965392
0.0577748
0.0380031
-13.9224
-14.9005
-15.5387
-15.9846
-16.3237
-16.5676
-16.7206
-16.8011
-16.8246
-16.7965
-16.7193
-16.5973
-16.4353
-16.237
-16.0048
-15.7406
-15.4461
-15.1231
-14.7739
-14.4008
-14.0064
-13.5936
-13.1651
-12.7237
-12.2722
-11.8133
-11.3495
-10.8837
-10.4184
-9.95621
-9.49951
-9.05045
-8.61091
-8.18246
-7.76635
-7.36348
-6.97452
-6.59979
-6.23947
-5.89346
-5.56156
-5.24337
-4.93845
-4.64624
-4.36618
-4.09764
-3.84007
-3.59286
-3.3555
-3.12749
-2.90842
-2.69789
-2.49559
-2.30124
-2.11462
-1.93555
-1.7639
-1.59955
-1.44244
-1.29251
-1.14978
-1.0143
-0.88605
-0.764955
-0.651028
-0.544268
-0.444709
-0.352342
-0.267175
-0.18917
-0.118309
-0.0545244
0.00223339
0.0520602
0.0950366
0.131287
0.16092
0.184085
0.200917
0.211587
0.216251
0.215108
0.208337
0.196163
0.178782
0.156511
0.129339
0.0988494
0.059476
0.0454963
-13.1013
-14.143
-14.8945
-15.4387
-15.8422
-16.1342
-16.3282
-16.4399
-16.4841
-16.47
-16.4031
-16.2886
-16.1316
-15.9363
-15.7058
-15.4429
-15.1503
-14.8305
-14.4863
-14.1206
-13.7362
-13.336
-12.9228
-12.4993
-12.068
-11.6316
-11.1923
-10.7525
-10.3145
-9.88013
-9.45139
-9.02986
-8.6169
-8.21362
-7.82088
-7.43931
-7.06933
-6.71116
-6.36489
-6.03046
-5.70771
-5.39639
-5.0962
-4.80677
-4.52773
-4.2587
-3.99929
-3.74914
-3.50791
-3.27529
-3.05101
-2.83483
-2.62655
-2.42599
-2.23303
-2.04755
-1.86948
-1.69875
-1.53537
-1.37935
-1.23069
-1.08936
-0.955342
-0.828669
-0.709369
-0.597464
-0.492974
-0.3959
-0.306237
-0.223963
-0.149047
-0.0814369
-0.0210704
0.0321332
0.0782679
0.117444
0.149784
0.175424
0.19451
0.2072
0.213663
0.214077
0.208631
0.197526
0.180971
0.159246
0.13241
0.10193
0.0627629
0.0494723
-12.6188
-13.6595
-14.4455
-15.0321
-15.4699
-15.7901
-16.0104
-16.1452
-16.2077
-16.2076
-16.1521
-16.0468
-15.8972
-15.7077
-15.4824
-15.2247
-14.938
-14.6254
-14.2899
-13.9346
-13.5623
-13.1757
-12.7777
-12.3706
-11.9568
-11.5388
-11.1185
-10.6979
-10.2791
-9.86351
-9.4528
-9.04826
-8.65096
-8.26187
-7.88166
-7.51094
-7.15006
-6.79933
-6.45884
-6.12869
-5.80878
-5.49904
-5.19927
-4.90931
-4.62887
-4.35775
-4.09567
-3.84241
-3.59771
-3.36139
-3.13321
-2.91304
-2.70069
-2.49608
-2.29906
-2.1096
-1.92761
-1.75311
-1.58605
-1.42644
-1.27422
-1.12946
-0.992124
-0.862293
-0.739948
-0.625147
-0.517864
-0.418139
-0.32593
-0.24125
-0.164032
-0.0942603
-0.0318386
0.0232799
0.0712218
0.112064
0.14596
0.173012
0.193399
0.207243
0.21474
0.216032
0.211329
0.200792
0.184639
0.163102
0.136303
0.105382
0.0669318
0.0496774
-12.4013
-13.4052
-14.1848
-14.7827
-15.2367
-15.5738
-15.8114
-15.9632
-16.0408
-16.0537
-16.0093
-15.9138
-15.7729
-15.5914
-15.3736
-15.1236
-14.8447
-14.5405
-14.214
-13.8682
-13.5059
-13.1299
-12.7425
-12.3463
-11.9435
-11.5361
-11.1263
-10.7157
-10.3063
-9.89938
-9.49649
-9.0988
-8.70738
-8.32309
-7.94671
-7.57879
-7.21983
-6.87011
-6.52991
-6.19932
-5.87842
-5.56715
-5.26547
-4.97321
-4.69026
-4.4164
-4.15148
-3.89528
-3.64764
-3.40834
-3.17726
-2.9542
-2.73908
-2.53174
-2.33214
-2.14017
-1.95582
-1.779
-1.60973
-1.44796
-1.29373
-1.14702
-1.00788
-0.876298
-0.752326
-0.635946
-0.527198
-0.426051
-0.332527
-0.246574
-0.168184
-0.0972798
-0.0338246
0.0222893
0.0711293
0.112832
0.147491
0.175269
0.196284
0.210715
0.218698
0.220426
0.216047
0.20576
0.189721
0.16815
0.141162
0.109486
0.0717479
0.0469068
-12.5418
-13.458
-14.1892
-14.7669
-15.2165
-15.5566
-15.8014
-15.9621
-16.0485
-16.0693
-16.0316
-15.942
-15.806
-15.6288
-15.4148
-15.168
-14.8923
-14.5911
-14.2676
-13.9246
-13.5652
-13.1918
-12.8069
-12.413
-12.0122
-11.6065
-11.198
-10.7885
-10.3796
-9.97294
-9.56977
-9.17136
-8.7788
-8.39299
-8.01471
-7.64459
-7.28315
-6.93075
-6.58768
-6.2541
-5.9301
-5.61571
-5.31087
-5.0155
-4.72945
-4.45259
-4.18474
-3.92572
-3.67535
-3.43346
-3.1999
-2.9745
-2.75714
-2.54772
-2.34613
-2.1523
-1.96617
-1.78769
-1.61685
-1.45364
-1.29804
-1.15008
-1.00975
-0.877081
-0.752081
-0.634762
-0.525128
-0.423177
-0.328896
-0.24226
-0.163231
-0.091756
-0.0277683
0.0288136
0.0780872
0.120163
0.155164
0.183227
0.204498
0.219131
0.227289
0.229137
0.224846
0.214585
0.198517
0.176806
0.149549
0.117136
0.0797606
0.0442543
-12.8318
-13.7042
-14.404
-14.9602
-15.3942
-15.7223
-15.9577
-16.1109
-16.1911
-16.2063
-16.1637
-16.0695
-15.9293
-15.7481
-15.5304
-15.2803
-15.0015
-14.6974
-14.3712
-14.0257
-13.6637
-13.2878
-12.9005
-12.5041
-12.1007
-11.6924
-11.2811
-10.8688
-10.4569
-10.0471
-9.64076
-9.23907
-8.84314
-8.45391
-8.07218
-7.69861
-7.33371
-6.9779
-6.63145
-6.29457
-5.96736
-5.64985
-5.34199
-5.04372
-4.75489
-4.47538
-4.205
-3.94358
-3.69094
-3.44691
-3.21132
-2.98402
-2.76488
-2.55377
-2.3506
-2.15529
-1.96777
-1.78801
-1.61598
-1.45165
-1.29503
-1.14611
-1.00491
-0.871443
-0.745709
-0.627723
-0.517485
-0.41499
-0.320223
-0.233157
-0.15375
-0.0819479
-0.0176804
0.039136
0.0886014
0.130828
0.165944
0.194085
0.215403
0.230053
0.2382
0.240014
0.235664
0.225318
0.209134
0.187246
0.159714
0.126736
0.0889788
0.0439006
)
;

boundaryField
{
    inlet
    {
        type            zeroGradient;
    }
    outlet
    {
        type            fixedValue;
        value           uniform 0;
    }
    upperWall
    {
        type            zeroGradient;
    }
    lowerWall
    {
        type            zeroGradient;
    }
    frontAndBack
    {
        type            empty;
    }
}


// ************************************************************************* //
