/*--------------------------------*- C++ -*----------------------------------*\
| =========                 |                                                 |
| \\      /  F ield         | OpenFOAM: The Open Source CFD Toolbox           |
|  \\    /   O peration     | Version:  2406                                  |
|   \\  /    A nd           | Website:  www.openfoam.com                      |
|    \\/     M anipulation  |                                                 |
\*---------------------------------------------------------------------------*/
FoamFile
{
    version     2.0;
    format      ascii;
    arch        "LSB;label=32;scalar=64";
    class       surfaceScalarField;
    location    "62";
    object      phi;
}
// * * * * * * * * * * * * * * * * * * * * * * * * * * * * * * * * * * * * * //

dimensions      [0 3 -1 0 0 0 0];

oriented        oriented;

internalField   nonuniform List<scalar> 
3680
(
0.921601
0.0783993
0.82085
0.10075
0.727511
0.0933385
0.649038
0.0784726
0.587067
0.061971
0.541472
0.0455946
0.511103
0.0303686
0.494813
0.0162901
0.492256
0.00255582
-0.0209682
0.513224
1.05412
0.0242824
1.09007
0.0647937
1.10506
0.0783545
1.1049
0.0786298
1.09531
0.0715623
1.08154
0.0593603
1.06776
0.0441454
1.05676
0.0272911
1.05021
0.00910257
-0.012222
1.04147
1.01422
0.0100597
1.0471
0.0319173
1.08359
0.0418636
1.1181
0.0441208
1.14762
0.0420356
1.17089
0.0360957
1.18826
0.0267692
1.20069
0.0148677
1.20873
0.00106062
-0.0145548
1.21106
1.00601
0.0040502
1.02594
0.0119888
1.05219
0.0156125
1.08092
0.0153873
1.11006
0.0128994
1.13768
0.00847594
1.16234
0.00210961
1.18318
-0.00597594
1.19976
-0.0155215
-0.026297
1.2115
1.00522
-0.00117067
1.02074
-0.00353139
1.04244
-0.0060854
1.06681
-0.00897992
1.09207
-0.012364
1.11691
-0.0163708
1.14015
-0.0211241
1.1609
-0.0267298
1.1786
-0.033216
-0.0404669
1.19277
1.00515
-0.00631683
1.02047
-0.0188537
1.04187
-0.0274833
1.06589
-0.0330028
1.09083
-0.0373011
1.11542
-0.0409623
1.13851
-0.044218
1.15928
-0.0475034
1.17724
-0.0511692
-0.0552879
1.19206
1.00579
-0.0121058
1.02524
-0.0383044
1.05089
-0.0531391
1.07903
-0.061141
1.10755
-0.0658179
1.13441
-0.0678216
1.15807
-0.0678761
1.1777
-0.0671335
1.19297
-0.0664378
-0.0661365
1.20381
1.01414
-0.0262437
1.04665
-0.0708183
1.08235
-0.0888331
1.1152
-0.0939976
1.14167
-0.0922906
1.16001
-0.0861592
1.17029
-0.0781509
1.17346
-0.070308
1.17063
-0.063607
-0.05828
1.16277
1.054
-0.0802461
1.08822
-0.10504
1.09927
-0.0998768
1.09237
-0.0871013
1.0728
-0.0727194
1.04545
-0.0588087
1.01407
-0.0467716
0.980987
-0.0372243
0.947474
-0.0300939
-0.0249884
0.914183
0.919754
0.814714
0.714837
0.627736
0.555016
0.496207
0.449436
0.412212
0.382118
0.357129
-0.000457218
0.000456939
-0.0025557
0.00209776
-0.00568901
0.00313259
-0.0092324
0.00354272
-0.0128962
0.00366319
-0.0165839
0.00368709
-0.0202726
0.00368803
-0.0239572
0.00368403
-0.0276328
0.003675
-0.0312916
0.0036582
-0.0349242
0.00363205
-0.0385206
0.0035959
-0.042071
0.00354988
-0.0455653
0.00349383
-0.0489925
0.00342685
-0.0523404
0.00334751
-0.0555943
0.00325361
-0.0587366
0.00314205
-0.0617458
0.00300916
-0.0645966
0.0028507
-0.0672589
0.00266245
-0.0696991
0.00244036
-0.0718796
0.00218088
-0.0737605
0.00188128
-0.0752998
0.00153989
-0.0764552
0.00115597
-0.0771849
0.000730525
-0.0774494
0.000265354
-0.0772123
-0.000236242
-0.0764435
-0.00076786
-0.0751206
-0.001322
-0.0732296
-0.00188991
-0.0707665
-0.00246203
-0.0677377
-0.00302745
-0.0641608
-0.00357562
-0.0600633
-0.00409599
-0.055483
-0.00457889
-0.0504664
-0.00501511
-0.0450677
-0.00539718
-0.0393472
-0.00571903
-0.0333693
-0.0059764
-0.0272014
-0.00616648
-0.0209117
-0.00628805
-0.0145663
-0.00634383
-0.00822812
-0.00633656
-0.00195813
-0.00626834
0.0041891
-0.00614555
0.0101645
-0.00597374
0.0159251
-0.00575881
0.0214347
-0.00550794
0.0266642
-0.00522779
0.031591
-0.00492506
0.0361989
-0.00460619
0.0404778
-0.00427731
0.0444234
-0.00394398
0.0480362
-0.00361125
0.0513212
-0.00328349
0.0542872
-0.00296448
0.0569459
-0.00265733
0.0593117
-0.00236454
0.061401
-0.00208801
0.0632312
-0.0018291
0.064821
-0.00158867
0.0661891
-0.00136716
0.0673547
-0.00116461
0.0683363
-0.000980779
0.0691522
-0.000815127
0.0698198
-0.000666935
0.0703558
-0.000535314
0.0707756
-0.000419266
0.0710938
-0.000317713
0.0713238
-0.000229533
0.0714778
-0.000153588
0.071567
-8.87416e-05
0.0716012
-3.38747e-05
0.0715895
1.20896e-05
0.0715396
5.01408e-05
0.0714588
8.11958e-05
0.0713529
0.000106108
0.0712275
0.000125693
0.071087
0.000140714
0.0709353
0.000151921
0.0707754
0.000160023
0.0706099
0.000165738
0.0704401
0.000169762
0.0702671
0.000173185
0.0700899
0.000176671
0.0699059
0.000183407
0.0697141
0.000191116
0.000314233
-0.0027295
0.00318575
-0.00908491
0.00845123
-0.01739
0.0114358
-0.0264571
0.0126082
-0.035686
0.0128905
-0.0448307
0.0128302
-0.0538007
0.0126566
-0.0625596
0.0124415
-0.0710848
0.0121988
-0.079356
0.011928
-0.0873528
0.0116276
-0.095055
0.0112969
-0.102441
0.0109349
-0.109488
0.0105397
-0.11617
0.0101076
-0.122456
0.00963286
-0.128311
0.00910806
-0.133693
0.00852418
-0.138555
0.00787106
-0.142842
0.00713817
-0.146495
0.00631591
-0.149451
0.00539637
-0.151643
0.004374
-0.153007
0.00324616
-0.153479
0.00201412
-0.153003
0.00068096
-0.151525
-0.000744541
-0.149009
-0.00224868
-0.145427
-0.00381599
-0.140765
-0.00542839
-0.135021
-0.00706354
-0.128211
-0.00869689
-0.120368
-0.0103025
-0.111539
-0.0118533
-0.101788
-0.0133232
-0.0911923
-0.0146888
-0.0798391
-0.0159286
-0.067827
-0.0170239
-0.0552612
-0.0179595
-0.0422523
-0.0187245
-0.0289144
-0.0193109
-0.0153619
-0.0197155
-0.00170261
-0.0199438
0.0119548
-0.0199975
0.0255054
-0.0198835
0.0388567
-0.0196158
0.0519213
-0.0192065
0.0646207
-0.0186693
0.0768854
-0.0180197
0.0886558
-0.0172745
0.0998823
-0.0164506
0.110526
-0.0155646
0.120556
-0.0146327
0.129952
-0.0136703
0.138704
-0.0126917
0.146806
-0.01171
0.154262
-0.010737
0.161084
-0.00978287
0.167286
-0.00885649
0.172889
-0.00796517
0.177919
-0.00711485
0.182402
-0.00631008
0.18637
-0.00555419
0.189854
-0.00484934
0.192888
-0.00419668
0.195506
-0.00359643
0.19774
-0.00304808
0.199625
-0.00255041
0.201193
-0.00210169
0.202475
-0.00169975
0.2035
-0.00134211
0.204298
-0.00102604
0.204894
-0.000748639
0.205313
-0.000506934
0.205578
-0.000297924
0.205709
-0.000118616
0.205726
3.39081e-05
0.205646
0.00016235
0.205483
0.000269236
0.205252
0.000357052
0.204965
0.000428207
0.204633
0.000485004
0.204263
0.000529655
0.203865
0.000564272
0.203444
0.000590958
0.203005
0.000611909
0.202551
0.000629253
0.202084
0.000649725
0.201607
0.000666747
0.000805253
-0.00514211
0.00832707
-0.0154933
0.0188007
-0.028002
0.0239429
-0.0410743
0.0256789
-0.0539818
0.0257965
-0.0664246
0.0252716
-0.0782875
0.0245182
-0.089526
0.0236787
-0.10012
0.0227911
-0.110055
0.021862
-0.119319
0.0208911
-0.1279
0.0198762
-0.135779
0.0188133
-0.142937
0.0176966
-0.149347
0.0165174
-0.154979
0.0152641
-0.159795
0.0139236
-0.163752
0.012481
-0.166801
0.0109209
-0.168892
0.00922867
-0.169968
0.00739242
-0.169976
0.00540508
-0.168865
0.00326417
-0.166589
0.000971242
-0.163111
-0.00146243
-0.15841
-0.00401829
-0.152477
-0.00667642
-0.145309
-0.00941421
-0.13692
-0.0122037
-0.127335
-0.0150116
-0.116595
-0.017801
-0.104758
-0.0205325
-0.0918908
-0.0231671
-0.0780784
-0.0256633
-0.0634168
-0.0279824
-0.0480109
-0.0300923
-0.0319719
-0.0319652
-0.0154157
-0.0335776
0.0015393
-0.0349121
0.0187717
-0.0359544
0.0361635
-0.0367002
0.0536033
-0.0371529
0.070979
-0.037317
0.0881864
-0.0372024
0.105129
-0.0368233
0.121714
-0.0361988
0.137861
-0.0353507
0.153497
-0.0343025
0.16856
-0.0330795
0.182996
-0.0317079
0.196762
-0.0302139
0.209824
-0.0286237
0.222157
-0.0269623
0.233743
-0.0252537
0.244574
-0.02352
0.254648
-0.0217817
0.263971
-0.0200573
0.272553
-0.0183629
0.280412
-0.0167129
0.287568
-0.0151191
0.294046
-0.0135913
0.299875
-0.0121375
0.305087
-0.0107636
0.309713
-0.00947381
0.313788
-0.00827067
0.317349
-0.00715535
0.32043
-0.00612774
0.323067
-0.00518665
0.325296
-0.00432993
0.327152
-0.00355468
0.328668
-0.00285737
0.329877
-0.00223399
0.330809
-0.00168016
0.331494
-0.00119126
0.33196
-0.000762546
0.332231
-0.00038918
0.332332
-6.63916e-05
0.332284
0.000210356
0.332109
0.000445417
0.331823
0.000643146
0.331444
0.00080778
0.330986
0.000943397
0.330462
0.00105388
0.329884
0.00114295
0.329261
0.0012141
0.328602
0.0012711
0.327913
0.00131646
0.327202
0.00135954
0.326484
0.00138415
0.00153014
-0.0072831
0.0156095
-0.0207796
0.0322955
-0.036059
0.0392207
-0.0512007
0.0408192
-0.0654747
0.0400693
-0.0786335
0.0384293
-0.090614
0.0364975
-0.101419
0.0344828
-0.111072
0.0324433
-0.119599
0.030388
-0.127022
0.0283126
-0.133355
0.0262085
-0.138607
0.0240642
-0.142777
0.0218663
-0.14586
0.0195994
-0.147842
0.0172455
-0.148704
0.014786
-0.148426
0.0122021
-0.14698
0.00947558
-0.144343
0.00659108
-0.140488
0.00353807
-0.135396
0.000313299
-0.129057
-0.00307397
-0.121478
-0.00660695
-0.11267
-0.0102685
-0.102652
-0.0140359
-0.0914501
-0.0178769
-0.0791071
-0.021756
-0.0656753
-0.0256342
-0.0512192
-0.0294664
-0.0358148
-0.0332039
-0.0195494
-0.0367965
-0.00252184
-0.0401932
0.0151636
-0.0433475
0.0334016
-0.0462193
0.0520839
-0.0487735
0.0710982
-0.0509784
0.0903308
-0.0528091
0.109669
-0.054249
0.129004
-0.0552885
0.148232
-0.0559265
0.16725
-0.0561694
0.185964
-0.0560297
0.204289
-0.0555252
0.222146
-0.0546787
0.239467
-0.0535177
0.25619
-0.0520726
0.272266
-0.050376
0.28765
-0.0484621
0.30231
-0.0463656
0.316219
-0.0441212
0.32936
-0.0417626
0.341722
-0.0393223
0.353301
-0.0368309
0.3641
-0.034317
0.374127
-0.0318066
0.383395
-0.0293229
0.39192
-0.0268868
0.399725
-0.0245162
0.406834
-0.0222262
0.413273
-0.0200293
0.419073
-0.0179356
0.424263
-0.0159526
0.428876
-0.0140858
0.432945
-0.0123386
0.436504
-0.0107126
0.439585
-0.00920786
0.442222
-0.00782292
0.444448
-0.00655521
0.446295
-0.00540115
0.447795
-0.00435631
0.448977
-0.0034156
0.449871
-0.00257344
0.450504
-0.00182385
0.450903
-0.00116064
0.451092
-0.000577499
0.451094
-6.82957e-05
0.450932
0.000373026
0.450625
0.000752625
0.450192
0.00107654
0.44965
0.00135062
0.449013
0.00158047
0.448296
0.00177145
0.44751
0.00192865
0.446668
0.00205677
0.445778
0.0021608
0.444851
0.00224321
0.443894
0.00231581
0.442924
0.00235308
0.00251015
-0.00907703
0.0246859
-0.0244145
0.0476315
-0.0403993
0.0552044
-0.0550621
0.0554809
-0.0678772
0.0528833
-0.0787828
0.0493338
-0.0878574
0.045571
-0.0952149
0.0418394
-0.100966
0.0381932
-0.105204
0.0346255
-0.108007
0.0311142
-0.109434
0.0276349
-0.109531
0.024161
-0.108333
0.0206672
-0.105863
0.0171286
-0.102138
0.0135197
-0.0971683
0.00981639
-0.0909638
0.00599727
-0.0835318
0.00204339
-0.0748826
-0.00205828
-0.0650353
-0.00630924
-0.0540203
-0.0107017
-0.0418708
-0.0152232
-0.0286234
-0.0198541
-0.0143241
-0.0245674
0.000969281
-0.0293289
0.0171924
-0.0340995
0.0342732
-0.0388364
0.0521307
-0.0434911
0.0706759
-0.048011
0.0898136
-0.0523412
0.109444
-0.0564267
0.129465
-0.060214
0.149773
-0.0636545
0.17026
-0.0667059
0.190819
-0.0693324
0.211346
-0.0715049
0.23174
-0.0732027
0.251905
-0.0744139
0.271752
-0.0751352
0.291199
-0.0753718
0.310167
-0.0751369
0.328589
-0.0744507
0.346404
-0.0733392
0.36356
-0.0718339
0.380014
-0.0699702
0.395729
-0.0677868
0.410678
-0.0653243
0.424842
-0.0626245
0.438207
-0.0597294
0.450767
-0.0566804
0.462524
-0.0535176
0.473482
-0.0502792
0.483653
-0.0470009
0.493053
-0.0437158
0.501702
-0.0404539
0.509622
-0.0372419
0.516839
-0.0341033
0.523382
-0.0310583
0.529281
-0.0281238
0.534566
-0.0253136
0.53927
-0.0226387
0.543426
-0.020107
0.547065
-0.0177242
0.55022
-0.0154936
0.552925
-0.0134163
0.555209
-0.0114918
0.557105
-0.00971798
0.558642
-0.00809122
0.559848
-0.00660692
0.560751
-0.0052595
0.561379
-0.00404265
0.561755
-0.00294949
0.561905
-0.00197274
0.561849
-0.00110488
0.561611
-0.000338514
0.561209
0.000333705
0.560663
0.000919528
0.559989
0.00142667
0.559204
0.00186254
0.55832
0.0022343
0.557352
0.00254877
0.556312
0.00281248
0.555209
0.00303159
0.554054
0.00321173
0.552856
0.00335861
0.551624
0.00347506
0.550365
0.00357376
0.549095
0.00362335
0.00378843
-0.0105785
0.0352639
-0.025997
0.0630487
-0.0398095
0.0690156
-0.0506571
0.0663274
-0.0586058
0.0608311
-0.0639469
0.0546738
-0.0669742
0.0485974
-0.0679515
0.0428156
-0.067095
0.0373358
-0.0645729
0.0321025
-0.0605163
0.0270566
-0.0550306
0.0221483
-0.0481976
0.0173271
-0.0400806
0.0125493
-0.0307314
0.00777873
-0.0201945
0.00298214
-0.00850843
-0.00187027
0.00429062
-0.00680228
0.0181614
-0.0118279
0.0330543
-0.0169516
0.048915
-0.0221704
0.0656867
-0.0274737
0.0833068
-0.0328436
0.101707
-0.0382549
0.120814
-0.0436748
0.140549
-0.049064
0.160828
-0.0543779
0.181559
-0.0595675
0.202647
-0.0645799
0.223996
-0.0693593
0.245504
-0.0738495
0.267073
-0.0779956
0.288605
-0.081746
0.310005
-0.0850545
0.331181
-0.0878819
0.352045
-0.0901967
0.372516
-0.0919755
0.392517
-0.0932041
0.411981
-0.0938775
0.430845
-0.0939995
0.449057
-0.0935827
0.466568
-0.0926477
0.483339
-0.0912219
0.499339
-0.0893388
0.514543
-0.087037
0.528932
-0.0843589
0.542496
-0.0813496
0.555228
-0.0780563
0.567131
-0.0745265
0.57821
-0.0708077
0.588476
-0.0669464
0.597947
-0.0629872
0.60664
-0.0589723
0.614581
-0.054941
0.621795
-0.0509293
0.628312
-0.0469696
0.634161
-0.0430907
0.639376
-0.0393174
0.643989
-0.035671
0.648035
-0.0321691
0.651547
-0.0288255
0.65456
-0.0256511
0.657107
-0.0226536
0.659221
-0.0198379
0.660934
-0.0172063
0.662277
-0.0147592
0.66328
-0.0124946
0.663972
-0.0104091
0.664379
-0.00849794
0.664527
-0.00675495
0.664441
-0.00517316
0.664143
-0.0037448
0.663656
-0.00246156
0.662998
-0.00131483
0.662189
-0.000296141
0.661248
0.00060324
0.660189
0.00139269
0.659027
0.00208136
0.657776
0.00267807
0.656448
0.00319138
0.655053
0.00362954
0.653601
0.00400042
0.652103
0.00431151
0.650565
0.00456986
0.648995
0.00478176
0.6474
0.00495383
0.645785
0.00508857
0.644159
0.00519977
0.642527
0.00525494
0.00540856
-0.0117497
0.047013
-0.0245171
0.0758148
-0.0317899
0.0762873
-0.0342359
0.0687722
-0.0331156
0.0597096
-0.029189
0.0507462
-0.0229457
0.0423529
-0.0147663
0.034635
-0.00493713
0.0275056
0.00633444
0.0208298
0.0188935
0.0144965
0.0326186
0.00842213
0.0474149
0.00252983
0.0632073
-0.00324397
0.0799395
-0.00895416
0.0975585
-0.0146374
0.116004
-0.0203168
0.13521
-0.0260082
0.155104
-0.0317228
0.175616
-0.037464
0.196672
-0.0432272
0.218197
-0.0489993
0.240112
-0.0547592
0.262336
-0.0604786
0.284783
-0.0661222
0.307367
-0.0716485
0.33
-0.0770109
0.352591
-0.0821594
0.375052
-0.0870413
0.397295
-0.0916026
0.419236
-0.0957903
0.440794
-0.0995538
0.461895
-0.102847
0.482469
-0.105629
0.502455
-0.107868
0.521797
-0.109538
0.540445
-0.110624
0.558358
-0.111118
0.575502
-0.111021
0.591847
-0.110345
0.607372
-0.109108
0.622061
-0.107336
0.635903
-0.105064
0.648894
-0.10233
0.661035
-0.0991778
0.672331
-0.0956545
0.682791
-0.0918102
0.692431
-0.087696
0.701268
-0.0833636
0.709325
-0.0788641
0.716625
-0.0742468
0.723197
-0.0695593
0.729071
-0.064846
0.734278
-0.060148
0.738851
-0.0555028
0.742826
-0.0509437
0.746235
-0.0465001
0.749115
-0.0421971
0.751499
-0.0380558
0.753424
-0.0340932
0.754921
-0.0303228
0.756024
-0.0267543
0.756764
-0.0233943
0.757173
-0.0202466
0.757279
-0.0173123
0.75711
-0.01459
0.756692
-0.0120766
0.75605
-0.00976698
0.755206
-0.0076549
0.754184
-0.00573272
0.753003
-0.00399198
0.751682
-0.00242344
0.750238
-0.00101761
0.748688
0.000234987
0.747047
0.00134475
0.745328
0.00232245
0.743542
0.00317836
0.741701
0.00392258
0.739814
0.00456496
0.737891
0.00511506
0.735938
0.00558209
0.733964
0.00597483
0.731974
0.00630159
0.729974
0.00657019
0.727968
0.00678771
0.72596
0.00696098
0.723955
0.00709408
0.721956
0.00719821
0.71996
0.00725067
0.00736183
-0.0118212
0.0588337
-0.0154335
0.0794258
-0.00840441
0.0692572
0.00418495
0.0561818
0.0195396
0.044354
0.0367254
0.0335593
0.0553197
0.0237576
0.0749919
0.0149619
0.0955137
0.00698292
0.116733
-0.00039004
0.138552
-0.00732351
0.160911
-0.0139377
0.183748
-0.020308
0.206996
-0.0264927
0.230581
-0.0325393
0.254429
-0.038486
0.278473
-0.0443611
0.302648
-0.0501839
0.326891
-0.0559659
0.351137
-0.0617099
0.375319
-0.0674102
0.399372
-0.0730528
0.423228
-0.0786156
0.446819
-0.0840697
0.470076
-0.0893795
0.492931
-0.0945042
0.515319
-0.099399
0.537175
-0.104016
0.55844
-0.108306
0.579057
-0.11222
0.598976
-0.11571
0.618153
-0.118731
0.63655
-0.121244
0.654134
-0.123214
0.670882
-0.124616
0.686773
-0.12543
0.701794
-0.125645
0.715937
-0.125261
0.729198
-0.124282
0.741579
-0.122726
0.753086
-0.120615
0.763728
-0.117979
0.77352
-0.114856
0.782477
-0.111288
0.790622
-0.107322
0.797976
-0.103009
0.804568
-0.098402
0.810425
-0.0935538
0.81558
-0.0885189
0.820065
-0.08335
0.823916
-0.0780983
0.827169
-0.0728122
0.829859
-0.0675367
0.832024
-0.0623134
0.8337
-0.0571794
0.834924
-0.0521676
0.835729
-0.0473065
0.836152
-0.0426202
0.836224
-0.0381285
0.835978
-0.0338469
0.835442
-0.0297873
0.834645
-0.0259579
0.833614
-0.0223636
0.832373
-0.0190064
0.830946
-0.0158857
0.829354
-0.0129987
0.827618
-0.0103406
0.825756
-0.00790477
0.823784
-0.00568349
0.821719
-0.00366778
0.819574
-0.00184786
0.817364
-0.000213779
0.815101
0.00124527
0.812795
0.00254093
0.810455
0.00368463
0.80809
0.00468753
0.805707
0.00556077
0.803315
0.00631526
0.800918
0.00696167
0.798523
0.00751031
0.796134
0.00797111
0.793755
0.00835355
0.79139
0.00866658
0.789042
0.00891865
0.786712
0.00911745
0.784402
0.00927042
0.782113
0.00938281
0.779848
0.00946269
0.777593
0.00950606
0.00954469
-0.00301828
0.0618514
0.0220505
0.0543557
0.0563338
0.0349728
0.0912503
0.0212642
0.125277
0.0103267
0.158393
0.000442127
0.190689
-0.00853967
0.222267
-0.0166164
0.253195
-0.0239464
0.283524
-0.0307196
0.313268
-0.037068
0.342419
-0.0430892
0.370972
-0.0488619
0.398928
-0.0544488
0.426286
-0.0598974
0.453041
-0.0652421
0.479187
-0.0705076
0.504713
-0.0757098
0.529603
-0.0808562
0.553839
-0.0859461
0.577399
-0.0909705
0.600258
-0.0959126
0.622391
-0.100748
0.643769
-0.105448
0.664364
-0.109975
0.684149
-0.11429
0.703099
-0.118349
0.72119
-0.122107
0.738402
-0.125518
0.754719
-0.128537
0.770127
-0.131119
0.78462
-0.133224
0.798193
-0.134816
0.810845
-0.135867
0.822581
-0.136352
0.833408
-0.136257
0.843336
-0.135574
0.852381
-0.134305
0.860559
-0.13246
0.86789
-0.130057
0.874397
-0.127122
0.880106
-0.123689
0.885048
-0.119798
0.889253
-0.115494
0.892756
-0.110826
0.895595
-0.105849
0.897808
-0.100616
0.899436
-0.0951827
0.900521
-0.0896046
0.901105
-0.083935
0.901231
-0.078225
0.90094
-0.0725223
0.900274
-0.0668713
0.899272
-0.0613117
0.89797
-0.0558791
0.896406
-0.0506041
0.894612
-0.045513
0.892618
-0.0406272
0.890453
-0.0359641
0.888142
-0.0315368
0.885708
-0.0273546
0.883173
-0.0234234
0.880555
-0.0197458
0.877869
-0.0163218
0.875132
-0.0131489
0.872355
-0.0102226
0.86955
-0.00753635
0.866727
-0.00508242
0.863895
-0.00285169
0.861061
-0.00083422
0.858232
0.000980636
0.855413
0.00260443
0.852609
0.00404892
0.849824
0.0053258
0.847062
0.00644684
0.844325
0.0074238
0.841617
0.00826824
0.838941
0.00899151
0.836298
0.00960469
0.833689
0.0101185
0.831117
0.0105431
0.828582
0.0108886
0.826084
0.0111641
0.823624
0.0113785
0.821202
0.0115401
0.818816
0.0116562
0.816464
0.0117349
0.814148
0.011778
0.811846
0.011808
0.0117556
0.0924762
-0.0306256
0.168958
-0.0221268
0.2309
-0.0269699
0.285083
-0.0329196
0.333462
-0.0380534
0.377152
-0.0432483
0.417121
-0.0485089
0.454095
-0.0535918
0.488579
-0.0584306
0.520927
-0.0630677
0.551409
-0.067551
0.580236
-0.0719162
0.607569
-0.076195
0.633535
-0.0804156
0.658237
-0.0846
0.681758
-0.0887631
0.704163
-0.0929133
0.725506
-0.0970529
0.745828
-0.101178
0.76516
-0.105279
0.783527
-0.109338
0.800946
-0.113332
0.81743
-0.117232
0.832987
-0.121005
0.847623
-0.124611
0.861343
-0.12801
0.87415
-0.131156
0.886048
-0.134004
0.897039
-0.136509
0.907127
-0.138625
0.916319
-0.140311
0.924621
-0.141526
0.932042
-0.142237
0.938592
-0.142417
0.944285
-0.142045
0.949135
-0.141107
0.953161
-0.139601
0.956385
-0.13753
0.958833
-0.134909
0.960534
-0.131759
0.961521
-0.12811
0.961833
-0.124001
0.961509
-0.119475
0.960595
-0.11458
0.959138
-0.109371
0.957189
-0.103901
0.954799
-0.0982267
0.952021
-0.0924048
0.948905
-0.0864898
0.945503
-0.0805341
0.941864
-0.074587
0.938034
-0.0686937
0.934057
-0.0628955
0.929973
-0.0572286
0.925818
-0.0517246
0.921623
-0.0464105
0.917417
-0.0413083
0.913225
-0.0364356
0.909066
-0.031806
0.904957
-0.0274289
0.900912
-0.0233106
0.896941
-0.0194537
0.893053
-0.0158586
0.889253
-0.0125227
0.885545
-0.00944173
0.881931
-0.00660939
0.878412
-0.00401795
0.874987
-0.00165833
0.871655
0.000479624
0.868414
0.00240664
0.86526
0.00413389
0.862191
0.00567283
0.859204
0.00703517
0.856297
0.00823275
0.853466
0.00927737
0.850709
0.0101808
0.848022
0.0109545
0.845403
0.0116097
0.84285
0.0121576
0.84036
0.0126087
0.837929
0.0129732
0.835557
0.013261
0.833239
0.0134815
0.830974
0.0136434
0.828758
0.0137554
0.82659
0.0138249
0.824463
0.0138615
0.822379
0.0138619
0.820312
0.0138751
0.0137284
0.532133
-0.0495359
0.569579
-0.0595725
0.606209
-0.0636001
0.64065
-0.0673614
0.673147
-0.0705508
0.703251
-0.0733521
0.730887
-0.0761453
0.756306
-0.0790115
0.779786
-0.08191
0.801544
-0.0848267
0.821766
-0.0877725
0.840607
-0.0907581
0.858201
-0.0937894
0.874656
-0.0968706
0.89006
-0.100004
0.904485
-0.103189
0.917992
-0.10642
0.930627
-0.109688
0.942427
-0.112978
0.953421
-0.116273
0.963629
-0.119546
0.973066
-0.122769
0.981741
-0.125907
0.989659
-0.128922
0.996819
-0.131772
1.00322
-0.134412
1.00886
-0.136795
1.01373
-0.138876
1.01783
-0.140606
1.02115
-0.141942
1.02368
-0.142843
1.02543
-0.143271
1.02638
-0.143196
1.02656
-0.142594
1.02597
-0.141449
1.02461
-0.139754
1.02252
-0.13751
1.01972
-0.134731
1.01625
-0.131435
1.01214
-0.127652
1.00745
-0.123419
1.00223
-0.11878
0.996534
-0.113782
0.990431
-0.108478
0.983984
-0.102925
0.97726
-0.0971773
0.970325
-0.091292
0.963242
-0.0853233
0.956075
-0.0793234
0.948881
-0.0733408
0.941713
-0.0674202
0.93462
-0.0616016
0.927643
-0.0559203
0.92082
-0.0504067
0.914181
-0.0450865
0.90775
-0.0399805
0.901546
-0.0351054
0.895583
-0.0304736
0.88987
-0.0260938
0.884412
-0.0219713
0.879208
-0.0181084
0.874259
-0.014505
0.869558
-0.0111583
0.865098
-0.00806405
0.860872
-0.00521599
0.856868
-0.00260648
0.853075
-0.00022622
0.849482
0.00193446
0.846076
0.00388528
0.842845
0.00563668
0.839779
0.00719957
0.836866
0.00858519
0.834095
0.00980488
0.831458
0.01087
0.828943
0.0117918
0.826542
0.0125814
0.824246
0.0132498
0.822048
0.0138077
0.819939
0.0142655
0.817914
0.0146333
0.815966
0.0149209
0.81409
0.0151375
0.812279
0.0152922
0.810528
0.0153937
0.808833
0.0154502
0.807189
0.0154689
0.805589
0.015461
0.804033
0.0154185
0.802497
0.0154109
0.0151827
1.02674
-0.0348068
1.01797
-0.0508076
1.01464
-0.0602636
1.01451
-0.067238
1.01687
-0.0729104
1.02097
-0.0774466
1.02605
-0.081225
1.03163
-0.0845921
1.03743
-0.0877148
1.04328
-0.0906757
1.04905
-0.0935399
1.05465
-0.0963591
1.06003
-0.0991672
1.06514
-0.101984
1.06996
-0.104822
1.07446
-0.107686
1.07861
-0.110571
1.08239
-0.11347
1.08578
-0.116368
1.08875
-0.119242
1.09127
-0.122066
1.09331
-0.124809
1.09484
-0.127435
1.09582
-0.129903
1.09622
-0.132171
1.096
-0.134193
1.09513
-0.135925
1.09358
-0.137321
1.09131
-0.138339
1.08831
-0.138937
1.08455
-0.139082
1.08002
-0.138744
1.07472
-0.137901
1.06867
-0.136537
1.06187
-0.134649
1.05435
-0.132239
1.04616
-0.129321
1.03735
-0.125916
1.02797
-0.122056
1.01809
-0.117776
1.00779
-0.113122
0.997156
-0.108142
0.986262
-0.102888
0.975198
-0.0974148
0.964049
-0.0917763
0.952897
-0.0860268
0.941823
-0.0802182
0.930898
-0.0743996
0.92019
-0.0686162
0.909757
-0.0629093
0.899651
-0.0573152
0.889915
-0.0518656
0.880581
-0.0465874
0.871676
-0.041503
0.863219
-0.0366301
0.85522
-0.0319826
0.847684
-0.0275705
0.84061
-0.0234004
0.833991
-0.0194761
0.827818
-0.0157986
0.822075
-0.0123668
0.816747
-0.00917766
0.811815
-0.00622648
0.807257
-0.00350708
0.803052
-0.00101154
0.799176
0.00126886
0.795607
0.0033421
0.792324
0.00521681
0.789306
0.00690258
0.786532
0.00840942
0.783984
0.00974751
0.781641
0.0109271
0.779487
0.0119586
0.777504
0.0128523
0.775677
0.0136182
0.773992
0.0142664
0.772434
0.0148069
0.770992
0.0152491
0.769655
0.0156025
0.768412
0.0158762
0.767253
0.0160789
0.766171
0.0162193
0.765157
0.0163057
0.764205
0.0163459
0.763306
0.016348
0.762457
0.0163184
0.761649
0.0162688
0.760879
0.0161889
0.760133
0.0161572
0.0158745
1.20729
-0.0310402
1.20148
-0.0449947
1.19614
-0.0549184
1.19133
-0.0624301
1.18711
-0.0686914
1.18361
-0.0739514
1.18079
-0.0784026
1.17851
-0.0823117
1.17666
-0.0858669
1.17516
-0.0891696
1.17391
-0.0922885
1.17283
-0.0952793
1.17184
-0.0981828
1.17088
-0.101025
1.16988
-0.103819
1.16877
-0.106572
1.16748
-0.109282
1.16595
-0.111939
1.16411
-0.114529
1.1619
-0.11703
1.15925
-0.119416
1.15609
-0.121656
1.15238
-0.123715
1.14803
-0.125557
1.143
-0.127142
1.13724
-0.128433
1.13071
-0.129389
1.12336
-0.129975
1.11518
-0.130158
1.10615
-0.129909
1.09628
-0.129206
1.08557
-0.128032
1.07405
-0.12638
1.06176
-0.12425
1.04876
-0.121651
1.03512
-0.118598
1.02092
-0.115118
1.00625
-0.111242
0.991199
-0.107009
0.975884
-0.102461
0.960408
-0.0976468
0.94488
-0.0926147
0.929407
-0.0874153
0.914091
-0.082099
0.899028
-0.0767142
0.884308
-0.071307
0.870009
-0.0659204
0.856202
-0.060593
0.842945
-0.0553596
0.830285
-0.0502503
0.81826
-0.0452907
0.806896
-0.040502
0.796209
-0.0359013
0.786207
-0.0315018
0.77689
-0.0273134
0.768249
-0.0233424
0.760271
-0.019593
0.752936
-0.0160664
0.746222
-0.0127623
0.740101
-0.00967834
0.734545
-0.00681089
0.729521
-0.00415507
0.724999
-0.00170462
0.720943
0.000548432
0.71732
0.00261042
0.714101
0.00448768
0.711255
0.00618799
0.708751
0.0077198
0.706562
0.00909164
0.704658
0.0103122
0.703015
0.0113903
0.701607
0.0123345
0.700412
0.0131537
0.699407
0.0138566
0.698573
0.0144517
0.697891
0.0149474
0.697346
0.0153521
0.69692
0.015674
0.696601
0.0159209
0.696376
0.0161008
0.696234
0.0162212
0.696163
0.0162896
0.696155
0.0163132
0.696201
0.0162992
0.696294
0.0162546
0.696427
0.0161856
0.696593
0.0161023
0.696786
0.0159963
0.697005
0.0159389
0.0156415
1.21809
-0.0376256
1.22104
-0.0479457
1.22233
-0.0562053
1.22271
-0.0628092
1.22244
-0.068428
1.2218
-0.0733069
1.22094
-0.077545
1.21992
-0.0812901
1.21873
-0.0846813
1.21737
-0.0878053
1.2158
-0.0907163
1.21398
-0.0934558
1.21185
-0.0960554
1.20936
-0.0985352
1.20645
-0.100906
1.20304
-0.10317
1.19909
-0.105324
1.19451
-0.10736
1.18924
-0.109263
1.18323
-0.111014
1.1764
-0.112591
1.16872
-0.113969
1.16012
-0.115119
1.15058
-0.116014
1.14006
-0.116623
1.12855
-0.116919
1.11604
-0.116876
1.10254
-0.116472
1.08807
-0.115687
1.07267
-0.114508
1.05639
-0.112929
1.03931
-0.110948
1.0215
-0.108572
1.00306
-0.105814
0.984107
-0.102694
0.964747
-0.0992379
0.945106
-0.0954776
0.925313
-0.0914494
0.905497
-0.0871929
0.885786
-0.0827501
0.866303
-0.0781641
0.847166
-0.0734778
0.828484
-0.0687329
0.810354
-0.0639694
0.792863
-0.0592239
0.776086
-0.0545302
0.760083
-0.049918
0.744903
-0.045413
0.73058
-0.0410373
0.717138
-0.0368087
0.704589
-0.0327416
0.692934
-0.0288471
0.682165
-0.0251329
0.672268
-0.0216046
0.663219
-0.0182648
0.654991
-0.0151148
0.647551
-0.0121538
0.640864
-0.00937986
0.634892
-0.00678988
0.629593
-0.00437993
0.624927
-0.00214507
0.62085
-7.86128e-05
0.61732
0.00182472
0.6143
0.00356881
0.61175
0.00515961
0.609634
0.00660373
0.607913
0.00790789
0.606554
0.00907874
0.605522
0.0101231
0.604786
0.0110478
0.604317
0.0118596
0.604085
0.0125653
0.604067
0.0131717
0.604238
0.0136856
0.604575
0.0141137
0.605059
0.0144625
0.605672
0.0147388
0.606397
0.0149489
0.607218
0.0150993
0.608122
0.0151962
0.609097
0.015246
0.610131
0.0152548
0.611215
0.0152287
0.61234
0.0151738
0.613498
0.0150963
0.614682
0.0150018
0.615886
0.0148983
0.617101
0.0147816
0.618339
0.014702
0.0144392
1.20324
-0.0480953
1.21065
-0.0553601
1.21608
-0.0616332
1.22015
-0.0668816
1.22311
-0.0713815
1.2251
-0.0753001
1.22625
-0.078699
1.22661
-0.0816514
1.22618
-0.0842455
1.22492
-0.0865492
1.22282
-0.0886077
1.21982
-0.0904551
1.21588
-0.0921188
1.21096
-0.093619
1.20503
-0.0949681
1.19803
-0.0961725
1.18994
-0.0972332
1.18073
-0.0981464
1.17037
-0.098904
1.15885
-0.0994945
1.14616
-0.0999032
1.13231
-0.100114
1.1173
-0.100109
1.10116
-0.0998704
1.08392
-0.0993817
1.06563
-0.0986273
1.04634
-0.0975943
1.02615
-0.0962733
1.00512
-0.0946589
0.983363
-0.0927503
0.960986
-0.0905519
0.938112
-0.0880731
0.914869
-0.0853283
0.891392
-0.082337
0.867822
-0.0791229
0.844297
-0.0757131
0.820958
-0.0721378
0.797938
-0.068429
0.775365
-0.0646196
0.753358
-0.0607427
0.732024
-0.0568304
0.71146
-0.0529135
0.691747
-0.0490203
0.672955
-0.0451766
0.655136
-0.0414052
0.638331
-0.0377258
0.622568
-0.0341546
0.60786
-0.0307052
0.594211
-0.0273878
0.581612
-0.0242102
0.570048
-0.0211777
0.559495
-0.0182935
0.549921
-0.0155592
0.541291
-0.0129748
0.533565
-0.0105392
0.526701
-0.0082502
0.520652
-0.00610516
0.515373
-0.00410065
0.510816
-0.00223284
0.506932
-0.000496731
0.503675
0.00111187
0.501001
0.00259551
0.498868
0.00395817
0.497232
0.00520474
0.496051
0.00633986
0.495287
0.00736822
0.4949
0.00829453
0.494855
0.0091235
0.495118
0.00985983
0.495657
0.0105082
0.496443
0.0110735
0.497448
0.0115603
0.498645
0.0119735
0.500013
0.0123179
0.501528
0.0125982
0.503171
0.0128194
0.504923
0.0129863
0.506767
0.0131036
0.50869
0.0131762
0.510677
0.0132089
0.512716
0.0132065
0.514797
0.0131739
0.516909
0.0131161
0.519044
0.013038
0.521195
0.0129449
0.523355
0.0128421
0.525518
0.012735
0.527674
0.0126263
0.529841
0.0125356
0.012363
1.20364
-0.059677
1.21224
-0.0639611
1.21837
-0.0677641
1.22244
-0.0709463
1.22463
-0.0735774
1.22508
-0.0757452
1.22387
-0.0774927
1.22108
-0.0788625
1.21675
-0.0799134
1.21091
-0.0807017
1.20357
-0.081271
1.19477
-0.0816555
1.18454
-0.0818834
1.17289
-0.0819771
1.15988
-0.0819524
1.14553
-0.0818194
1.12988
-0.0815827
1.11297
-0.0812427
1.09487
-0.0807959
1.07561
-0.080236
1.05526
-0.0795547
1.03389
-0.0787422
1.01157
-0.0777884
0.988387
-0.0766837
0.964426
-0.0754192
0.939788
-0.0739881
0.91458
-0.0723856
0.888918
-0.07061
0.862923
-0.0686626
0.836722
-0.0665482
0.810446