/*--------------------------------*- C++ -*----------------------------------*\
| =========                 |                                                 |
| \\      /  F ield         | OpenFOAM: The Open Source CFD Toolbox           |
|  \\    /   O peration     | Version:  2406                                  |
|   \\  /    A nd           | Website:  www.openfoam.com                      |
|    \\/     M anipulation  |                                                 |
\*---------------------------------------------------------------------------*/
FoamFile
{
    version     2.0;
    format      ascii;
    arch        "LSB;label=32;scalar=64";
    class       volScalarField;
    location    "50";
    object      p;
}
// * * * * * * * * * * * * * * * * * * * * * * * * * * * * * * * * * * * * * //

dimensions      [0 2 -2 0 0 0 0];

internalField   nonuniform List<scalar> 
1900
(
29.1057
16.2834
6.43919
0.915353
-3.33968
-7.3596
-10.9815
-14.1999
-17.2158
-20.3003
14.6004
9.7824
4.6847
0.724816
-2.90363
-6.53915
-9.96297
-13.0554
-15.8595
-18.3946
9.70715
8.21665
5.11086
1.62496
-1.72013
-4.95696
-8.05838
-10.9172
-13.4404
-15.524
7.85004
6.99481
4.72056
1.75821
-1.21778
-4.09008
-6.86856
-9.46705
-11.7703
-13.6807
7.09271
6.33979
4.47975
1.91714
-0.794036
-3.45556
-6.0402
-8.46837
-10.6247
-12.4259
7.32856
6.58639
4.7506
2.22811
-0.426495
-3.01566
-5.51271
-7.84122
-9.89713
-11.6206
8.54232
7.72064
5.52176
2.68362
-0.118507
-2.7668
-5.27038
-7.55265
-9.53086
-11.1789
10.8133
9.37186
6.39642
3.13494
0.103747
-2.72573
-5.31796
-7.57551
-9.46837
-11.0259
16.106
11.3807
6.51169
2.90147
-0.272007
-3.32294
-6.00084
-8.16832
-9.89616
-11.2923
30.9818
18.247
8.64992
3.49344
-0.283333
-3.67195
-6.46982
-8.62486
-10.2991
-11.6369
-18.5001
-18.5282
-18.5524
-18.5609
-18.5543
-18.5335
-18.498
-18.4465
-18.3771
-18.2882
-18.1778
-18.0444
-17.8864
-17.7021
-17.4902
-17.2493
-16.9781
-16.6752
-16.3395
-15.9701
-15.5659
-15.1263
-14.651
-14.1397
-13.5929
-13.0111
-12.3957
-11.7484
-11.0716
-10.3684
-9.6426
-8.8987
-8.14181
-7.37755
-6.612
-5.85148
-5.10247
-4.37138
-3.66438
-2.98719
-2.34498
-1.74216
-1.18236
-0.668274
-0.201689
0.216554
0.586475
0.90868
1.18446
1.41581
1.60521
1.7555
1.86982
1.9515
2.00392
2.03048
2.0345
2.01917
1.98751
1.94231
1.88614
1.82129
1.74984
1.67359
1.59409
1.51269
1.43049
1.34841
1.26719
1.18741
1.1095
1.03378
0.960442
0.889607
0.821313
0.75554
0.692217
0.631233
0.572445
0.515689
0.460781
0.407529
0.355733
0.305196
0.255729
0.207153
0.159347
0.112159
0.0652154
0.0168109
-18.4682
-18.4972
-18.5181
-18.5228
-18.5145
-18.4939
-18.4597
-18.41
-18.3427
-18.2561
-18.1481
-18.0171
-17.8614
-17.6795
-17.47
-17.2316
-16.963
-16.6631
-16.3306
-15.9646
-15.5643
-15.1288
-14.6579
-14.1513
-13.6093
-13.0325
-12.4221
-11.7797
-11.1079
-10.4095
-9.68821
-8.9484
-8.19499
-7.43365
-6.67044
-5.91169
-5.1638
-4.4333
-3.72649
-3.04915
-2.40636
-1.80275
-1.24223
-0.72744
-0.260028
0.159137
0.529983
0.853215
1.13023
1.36301
1.55403
1.70616
1.82251
1.90638
1.96115
1.99019
1.9968
1.98413
1.95517
1.91268
1.85918
1.79697
1.72808
1.65429
1.57715
1.49796
1.41784
1.33769
1.25825
1.18009
1.10365
1.02924
0.957084
0.887292
0.819916
0.754942
0.692311
0.631919
0.573635
0.5173
0.462744
0.40978
0.35822
0.307874
0.258561
0.21008
0.16235
0.114963
0.0679013
0.0121055
-18.4471
-18.481
-18.5022
-18.505
-18.4966
-18.4779
-18.4465
-18.4001
-18.3364
-18.2532
-18.1486
-18.0209
-17.8684
-17.6897
-17.4835
-17.2486
-16.9836
-16.6875
-16.3592
-15.9974
-15.6015
-15.1707
-14.7045
-14.2026
-13.6652
-13.0928
-12.4865
-11.8482
-11.1802
-10.4851
-9.76647
-9.02853
-8.27631
-7.51549
-6.75221
-5.99277
-5.24349
-4.51123
-3.80298
-3.12467
-2.48124
-1.87705
-1.31574
-0.799954
-0.331415
0.0889481
0.461039
0.785562
1.06393
1.29817
1.49077
1.64461
1.76285
1.84878
1.90578
1.93723
1.94639
1.93641
1.91025
1.87064
1.8201
1.76087
1.69496
1.62412
1.54987
1.4735
1.39609
1.31854
1.24156
1.16572
1.09145
1.01906
0.94875
0.88065
0.81481
0.751227
0.689847
0.630573
0.573276
0.517809
0.464005
0.411689
0.360675
0.310773
0.261804
0.213529
0.165941
0.118141
0.0722447
0.00722205
-18.4701
-18.5085
-18.5313
-18.534
-18.5272
-18.5112
-18.483
-18.4398
-18.3793
-18.299
-18.197
-18.0717
-17.9216
-17.7452
-17.5415
-17.3091
-17.0469
-16.7537
-16.4284
-16.0699
-15.6773
-15.25
-14.787
-14.2879
-13.753
-13.1829
-12.5789
-11.9423
-11.2753
-10.5806
-9.86114
-9.12166
-8.36789
-7.6058
-6.84147
-6.08133
-5.33188
-4.59972
-3.89137
-3.21279
-2.56918
-1.96509
-1.40415
-0.888994
-0.421272
-0.00179725
0.369442
0.693234
0.971083
1.20508
1.39779
1.55215
1.67133
1.75865
1.8175
1.85122
1.86308
1.85618
1.83343
1.79752
1.75091
1.69579
1.63411
1.56758
1.49766
1.42559
1.35241
1.27899
1.206
1.13399
1.06335
0.994382
0.927283
0.862165
0.799078
0.738027
0.678963
0.621789
0.566382
0.512597
0.460276
0.40925
0.35934
0.310357
0.262134
0.214386
0.167279
0.119163
0.075289
0.000535691
-18.5653
-18.6012
-18.6203
-18.6201
-18.6122
-18.596
-18.5679
-18.5247
-18.4638
-18.3832
-18.2809
-18.1553
-18.0051
-17.8289
-17.6255
-17.3936
-17.1319
-16.8395
-16.515
-16.1575
-15.7659
-15.3391
-14.8763
-14.3774
-13.8431
-13.2737
-12.6701
-12.0338
-11.3669
-10.6722
-9.95318
-9.21438
-8.46125
-7.69977
-6.9363
-6.17753
-5.43024
-4.70114
-3.99669
-3.3227
-2.68424
-2.08563
-1.53032
-1.02078
-0.558495
-0.144096
0.222605
0.542546
0.81735
1.0492
1.24073
1.39491
1.51491
1.60405
1.66567
1.70305
1.71937
1.71765
1.70069
1.6711
1.6312
1.58311
1.52866
1.46946
1.4069
1.34213
1.27613
1.20969
1.14344
1.07788
1.01338
0.950203
0.888525
0.828452
0.770035
0.713283
0.658147
0.604533
0.552325
0.501389
0.451581
0.402744
0.354718
0.307324
0.260427
0.213711
0.167589
0.119617
0.0783551
-0.00561223
-18.7596
-18.7757
-18.7752
-18.7604
-18.7421
-18.7177
-18.6824
-18.633
-18.5666
-18.4809
-18.3739
-18.2439
-18.0896
-17.9099
-17.7035
-17.4691
-17.2055
-16.9118
-16.5869
-16.2289
-15.8368
-15.4097
-14.9469
-14.448
-13.9131
-13.343
-12.7385
-12.1014
-11.4341
-10.7397
-10.022
-9.28563
-8.53631
-7.7801
-7.02339
-6.27283
-5.53512
-4.81683
-4.12413
-3.46259
-2.83699
-2.25135
-1.70879
-1.21148
-0.760647
-0.35664
0.000962726
0.313302
0.582146
0.809769
0.998852
1.15236
1.27345
1.36535
1.43129
1.47443
1.49779
1.50421
1.49634
1.47659
1.44714
1.40992
1.36661
1.31868
1.26738
1.21375
1.15866
1.10282
1.04678
0.99097
0.935725
0.881271
0.827761
0.775298
0.723936
0.673671
0.624447
0.576182
0.528776
0.482116
0.436081
0.390542
0.345366
0.300402
0.255568
0.210549
0.166008
0.118848
0.0804138
-0.0103616
-19.0812
-19.0406
-18.9838
-18.9288
-18.8831
-18.8383
-18.7868
-18.7239
-18.6464
-18.5516
-18.4378
-18.3028
-18.1444
-17.9613
-17.7523
-17.5157
-17.25
-16.9541
-16.6265
-16.2657
-15.8708
-15.4407
-14.975
-14.4734
-13.9364
-13.3647
-12.7596
-12.1232
-11.458
-10.7673
-10.0553
-9.32693
-8.58775
-7.84389
-7.1017
-6.36772
-5.64842
-4.95005
-4.27836
-3.63847
-3.03472
-2.47063
-1.94883
-1.47105
-1.03813
-0.650093
-0.306216
-0.00513181
0.255067
0.476733
0.662551
0.815443
0.938451
1.03466
1.1071
1.15871
1.19228
1.21041
1.21548
1.20965
1.19486
1.1728
1.14496
1.1126
1.0768
1.03844
0.998264
0.956858
0.914686
0.87211
0.829393
0.786726
0.744256
0.702085
0.660236
0.618681
0.577379
0.53627
0.495284
0.454339
0.413348
0.37222
0.330861
0.289171
0.247126
0.20445
0.161999
0.116338
0.0804418
-0.0129366
-19.608
-19.3966
-19.1997
-19.0664
-18.9763
-18.9038
-18.8342
-18.7594
-18.6734
-18.5719
-18.4529
-18.3138
-18.1522
-17.966
-17.7536
-17.5133
-17.2439
-16.9441
-16.6123
-16.2472
-15.8478
-15.4133
-14.9435
-14.4385
-13.8991
-13.3264
-12.7222
-12.0887
-11.4291
-10.7469
-10.0465
-9.33301
-8.61186
-7.88906
-7.17076
-6.46315
-5.77228
-5.10385
-4.46303
-3.8543
-3.28137
-2.74711
-2.25357
-1.80195
-1.39261
-1.02521
-0.698717
-0.411556
-0.161708
0.0532024
0.235816
0.388927
0.515395
0.618049
0.699651
0.76283
0.810053
0.843585
0.865489
0.877604
0.881564
0.878786
0.870492
0.857712
0.841313
0.822005
0.800366
0.776857
0.751839
0.725588
0.698308
0.670177
0.641319
0.611767
0.581524
0.550585
0.518933
0.48654
0.453369
0.419378
0.384521
0.348752
0.312033
0.274317
0.235649
0.195823
0.155777
0.11219
0.0780186
-0.0124481
-20.7356
-19.8703
-19.3252
-19.096
-18.9703
-18.8712
-18.7898
-18.7138
-18.6283
-18.5265
-18.4064
-18.2657
-18.1014
-17.9112
-17.6936
-17.4475
-17.1719
-16.8657
-16.5276
-16.1563
-15.7508
-15.3108
-14.8364
-14.3281
-13.7872
-13.2155
-12.6152
-11.9892
-11.3407
-10.6738
-9.99279
-9.30264
-8.60867
-7.91652
-7.2319
-6.56048
-5.90767
-5.27847
-4.67731
-4.10791
-3.57322
-3.0754
-2.61584
-2.19516
-1.81326
-1.46939
-1.16226
-0.890143
-0.650967
-0.442392
-0.261918
-0.106959
0.0250589
0.136649
0.230198
0.307957
0.371998
0.424204
0.46625
0.49962
0.5256
0.5453
0.559655
0.569449
0.575321
0.577797
0.577289
0.574126
0.568561
0.560799
0.551019
0.539323
0.525749
0.510328
0.493088
0.474047
0.453214
0.430592
0.406179
0.379976
0.351983
0.322206
0.290661
0.257368
0.222426
0.185736
0.148169
0.107019
0.0733229
-0.00822926
-22.9345
-20.4744
-19.2929
-19.0204
-18.9007
-18.7726
-18.6745
-18.5991
-18.5159
-18.4123
-18.2887
-18.1447
-17.9767
-17.781
-17.556
-17.3014
-17.0168
-16.7017
-16.3553
-15.9766
-15.5648
-15.1197
-14.6419
-14.1326
-13.5935
-13.027
-12.436
-11.8236
-11.1935
-10.5497
-9.89639
-9.2383
-8.58035
-7.92767
-7.28536
-6.6584
-6.05144
-5.46865
-4.9136
-4.38919
-3.89757
-3.44016
-3.01767
-2.63016
-2.27708
-1.95736
-1.66954
-1.4118
-1.1821
-0.978236
-0.797936
-0.638937
-0.499017
-0.376069
-0.268124
-0.173374
-0.0901732
-0.0170666
0.0472267
0.10381
0.153629
0.197476
0.236011
0.269769
0.299182
0.324591
0.346262
0.364399
0.379178
0.390728
0.399122
0.404411
0.406639
0.405853
0.402093
0.395391
0.385779
0.373289
0.357957
0.339822
0.318934
0.295348
0.269138
0.240384
0.209229
0.175693
0.140446
0.101825
0.0672263
-0.000156423
-22.0121
-20.2656
-19.0653
-18.8375
-18.7695
-18.6331
-18.5098
-18.4207
-18.331
-18.2209
-18.0903
-17.9395
-17.7644
-17.5605
-17.3256
-17.0601
-16.7648
-16.44
-16.0854
-15.7002
-15.2841
-14.837
-14.3598
-13.8541
-13.3224
-12.7675
-12.1926
-11.6012
-10.9969
-10.3837
-9.76557
-9.14683
-8.53191
-7.92528
-7.33135
-6.7543
-6.19791
-5.66546
-5.15966
-4.68252
-4.23541
-3.81903
-3.4335
-3.07836
-2.75272
-2.45531
-2.18459
-1.93878
-1.71597
-1.51421
-1.33156
-1.16615
-1.01617
-0.879963
-0.756019
-0.64297
-0.539613
-0.444898
-0.357935
-0.277964
-0.204359
-0.136605
-0.0742907
-0.01709
0.0352426
0.0828993
0.126018
0.164701
0.199023
0.229039
0.254798
0.276347
0.293731
0.306992
0.316174
0.321321
0.322486
0.319728
0.313115
0.302727
0.288655
0.271001
0.249885
0.225445
0.197851
0.167242
0.134003
0.0977471
0.0611251
0.0111367
-19.6751
-19.0856
-18.3862
-18.2378
-18.2537
-18.2067
-18.1307
-18.062
-17.9869
-17.8892
-17.7664
-17.6184
-17.4422
-17.2342
-16.9935
-16.7212
-16.4192
-16.0887
-15.73
-15.3429
-14.927
-14.483
-14.0118
-13.5158
-12.9975
-12.4603
-11.9077
-11.3431
-10.7703
-10.193
-9.6149
-9.03988
-8.47177
-7.91436
-7.37126
-6.84578
-6.34081
-5.85872
-5.40133
-4.96984
-4.56489
-4.18655
-3.83446
-3.50784
-3.2056
-2.9264
-2.66875
-2.43103
-2.21164
-2.00894
-1.82142
-1.64759
-1.48612
-1.3358
-1.19554
-1.06439
-0.941545
-0.826313
-0.718126
-0.616519
-0.521119
-0.431634
-0.347844
-0.269582
-0.196752
-0.129301
-0.0671973
-0.0103861
0.0411707
0.0875036
0.128637
0.164601
0.195424
0.221146
0.24181
0.257477
0.268214
0.274107
0.275249
0.271753
0.263742
0.251358
0.234756
0.21412
0.189633
0.161542
0.129926
0.0956755
0.056517
0.0242756
-16.8547
-17.2662
-17.2908
-17.3933
-17.5439
-17.6206
-17.6249
-17.5975
-17.5496
-17.4749
-17.3686
-17.2294
-17.056
-16.8477
-16.605
-16.3304
-16.0261
-15.694
-15.3349
-14.949
-14.5366
-14.0988
-13.6371
-13.1541
-12.653
-12.1371
-11.6102
-11.0756
-10.5371
-9.9979
-9.46151
-8.93118
-8.4101
-7.90131
-7.40757
-6.93129
-6.47448
-6.03866
-5.62481
-5.23346
-4.86466
-4.51808
-4.19305
-3.88865
-3.60377
-3.33719
-3.08759
-2.85368
-2.63418
-2.42788
-2.23362
-2.05038
-1.87722
-1.71331
-1.55794
-1.41051
-1.27051
-1.13753
-1.01123
-0.891377
-0.77776
-0.670255
-0.568757
-0.473258
-0.383789
-0.300326
-0.222821
-0.151276
-0.0856846
-0.0260603
0.0276066
0.075318
0.117104
0.152993
0.183045
0.207318
0.225905
0.238898
0.24642
0.248596
0.245579
0.237529
0.224636
0.2071
0.185128
0.159034
0.128678
0.0959474
0.0544925
0.0373976
-15.0795
-15.8993
-16.3186
-16.6094
-16.8537
-17.0165
-17.0945
-17.1178
-17.1049
-17.0559
-16.9667
-16.8364
-16.6663
-16.4584
-16.2153
-15.9399
-15.6349
-15.3024
-14.9436
-14.5595
-14.1514
-13.7208
-13.27
-12.8018
-12.3197
-11.827
-11.3273
-10.8239
-10.3201
-9.81881
-9.32295
-8.83518
-8.35797
-7.89357
-7.44391
-7.01061
-6.59485
-6.19746
-5.81881
-5.45898
-5.11767
-4.79437
-4.48832
-4.19868
-3.92448
-3.66474
-3.41844
-3.18464
-2.9624
-2.75088
-2.54929
-2.35695
-2.17324
-1.99765
-1.82972
-1.66909
-1.51546
-1.36861
-1.22835
-1.09456
-0.967156
-0.846117
-0.731503
-0.623325
-0.521528
-0.426129
-0.337147
-0.254629
-0.178596
-0.10908
-0.0460851
0.0103837
0.0603541
0.103854
0.140948
0.171699
0.196208
0.214575
0.226935
0.233422
0.234203
0.229449
0.219364
0.204165
0.184065
0.159421
0.12999
0.0982388
0.0553632
0.0485545
-13.8217
-14.7984
-15.4386
-15.8865
-16.2245
-16.4633
-16.6088
-16.6825
-16.7017
-16.6722
-16.5943
-16.4696
-16.3017
-16.0945
-15.8515
-15.5761
-15.271
-14.9388
-14.5813
-14.2004
-13.7981
-13.3767
-12.9388
-12.4876
-12.0262
-11.558
-11.0861
-10.6135
-10.1429
-9.67673
-9.21739
-8.76684
-8.32693
-7.89918
-7.4849
-7.085
-6.70021
-6.33083
-5.977
-5.6385
-5.31504
-5.00605
-4.71097
-4.42908
-4.15971
-3.9021
-3.65562
-3.41953
-3.19329
-2.97626
-2.76799
-2.56797
-2.37587
-2.1913
-2.01403
-1.84379
-1.68046
-1.52383
-1.37388
-1.23051
-1.09379
-0.96371
-0.840269
-0.723424
-0.613252
-0.50976
-0.413046
-0.323117
-0.240054
-0.163846
-0.0945492
-0.0321233
0.0234104
0.0721261
0.114042
0.149268
0.177863
0.199972
0.215691
0.225199
0.228625
0.226184
0.218042
0.204457
0.185608
0.161907
0.133084
0.101766
0.0586508
0.0561383
-12.9965
-14.0359
-14.7876
-15.3316
-15.7324
-16.0192
-16.2068
-16.3126
-16.3521
-16.3342
-16.2633
-16.1433
-15.9787
-15.7741
-15.5335
-15.2603
-14.9578
-14.6288
-14.276
-13.9018
-13.5089
-13.0999
-12.6777
-12.2453
-11.8056
-11.3614
-10.9156
-10.4705
-10.0284
-9.59127
-9.16092
-8.73887
-8.32645
-7.92476
-7.53466
-7.1568
-6.79157
-6.43917
-6.09963
-5.77279
-5.45838
-5.15606
-4.8654
-4.58595
-4.31723
-4.05877
-3.81011
-3.57079
-3.34041
-3.11857
-2.90492
-2.69916
-2.50101
-2.31024
-2.12666
-1.9501
-1.78045
-1.61762
-1.4616
-1.31237
-1.16991
-1.03417
-0.905197
-0.783023
-0.667705
-0.559298
-0.457856
-0.363428
-0.276056
-0.195769
-0.122585
-0.0565042
0.00248911
0.0544298
0.0993718
0.137388
0.168572
0.193033
0.210899
0.222314
0.22744
0.226453
0.219549
0.206943
0.188853
0.165623
0.137131
0.105686
0.0633933
0.0592557
-12.5092
-13.5473
-14.3324
-14.9174
-15.3517
-15.6665
-15.8804
-16.0089
-16.0655
-16.0598
-15.9983
-15.8861
-15.7285
-15.5303
-15.2957
-15.0287
-14.7327
-14.4111
-14.0669
-13.703
-13.3223
-12.9274
-12.5212
-12.1064
-11.6856
-11.2612
-10.8356
-10.4108
-9.98878
-9.57117
-9.15938
-8.75481
-8.35845
-7.97132
-7.59404
-7.22725
-6.87123
-6.5263
-6.19243
-5.8697
-5.55787
-5.25685
-4.96629
-4.68601
-4.41558
-4.15478
-3.90319
-3.66058
-3.42653
-3.20087
-2.98321
-2.77341
-2.57115
-2.37635
-2.18873
-2.00828
-1.83479
-1.66834
-1.50874
-1.35605
-1.21015
-1.07117
-0.939038
-0.813888
-0.695678
-0.58455
-0.480464
-0.383554
-0.293774
-0.211237
-0.135875
-0.0677728
-0.00683316
0.0468987
0.0935539
0.133128
0.165787
0.191566
0.210665
0.223152
0.229256
0.229077
0.222872
0.210771
0.193051
0.169938
0.141485
0.109414
0.0685364
0.0578777
-12.2876
-13.2888
-14.0664
-14.6613
-15.1108
-15.4421
-15.6735
-15.8192
-15.8906
-15.8973
-15.8462
-15.7436
-15.5949
-15.4052
-15.1789
-14.9202
-14.6327
-14.3199
-13.9851
-13.6311
-13.2608
-12.877
-12.4823
-12.0792
-11.6702
-11.2573
-10.8429
-10.4286
-10.0163
-9.60756
-9.20377
-8.8061
-8.4157
-8.03337
-7.65993
-7.29586
-6.94168
-6.59758
-6.26383
-5.94041
-5.62737
-5.32454
-5.03185
-4.74901
-4.47588
-4.21212
-3.95756
-3.71182
-3.47474
-3.24597
-3.02535
-2.81257
-2.60753
-2.40994
-2.21976
-2.03679
-1.86099
-1.69221
-1.53047
-1.37566
-1.22785
-1.08698
-0.953148
-0.826312
-0.70659
-0.593952
-0.488519
-0.390259
-0.29928
-0.215538
-0.139117
-0.069947
-0.00807829
0.0465904
0.0940479
0.134431
0.167768
0.194229
0.213879
0.226919
0.233442
0.233676
0.227737
0.21587
0.198209
0.175025
0.146331
0.113314
0.0737937
0.0530944
-12.4259
-13.3394
-14.0677
-14.6416
-15.0864
-15.4213
-15.6605
-15.8156
-15.8961
-15.9106
-15.8663
-15.7696
-15.626
-15.4409
-15.2188
-14.9638
-14.6799
-14.3704
-14.0387
-13.6878
-13.3206
-12.9397
-12.5477
-12.1472
-11.7404
-11.3294
-10.9164
-10.5032
-10.0914
-9.68272
-9.27851
-8.88001
-8.48831
-8.10434
-7.72884
-7.36244
-7.0056
-6.65866
-6.32185
-5.99528
-5.67898
-5.37289
-5.07689
-4.79083
-4.51449
-4.24764
-3.99004
-3.74143
-3.50155
-3.27015
-3.04699
-2.83185
-2.62453
-2.42486
-2.23267
-2.04783
-1.87024
-1.69981
-1.5365
-1.38027
-1.23111
-1.08902
-0.954015
-0.826132
-0.705403
-0.591872
-0.485579
-0.386564
-0.294858
-0.210484
-0.133454
-0.0637639
-0.00139327
0.0536956
0.101558
0.142271
0.175925
0.202634
0.222522
0.235732
0.24242
0.242754
0.236903
0.225051
0.207373
0.18403
0.155079
0.121198
0.0825606
0.0487576
-12.7164
-13.5857
-14.2822
-14.8345
-15.2642
-15.5876
-15.8178
-15.9653
-16.0395
-16.0484
-15.999
-15.8978
-15.7502
-15.5613
-15.3357
-15.0776
-14.7906
-14.4783
-14.1439
-13.7905
-13.4207
-13.0374
-12.6431
-12.24
-11.8306
-11.417
-11.0011
-10.5849
-10.1701
-9.75824
-9.35073
-8.94885
-8.55369
-8.16619
-7.78714
-7.41717
-7.05677
-6.70631
-6.36603
-6.03606
-5.71645
-5.40715
-5.10807
-4.81905
-4.53988
-4.27035
-4.01019
-3.75915
-3.51698
-3.28342
-3.05823
-2.84119
-2.63207
-2.43071
-2.23694
-2.05062
-1.87165
-1.69994
-1.53543
-1.3781
-1.2279
-1.08486
-0.948977
-0.820287
-0.698819
-0.584617
-0.477715
-0.378154
-0.285961
-0.201161
-0.123758
-0.0537497
0.00888861
0.0641946
0.112229
0.153068
0.186809
0.213565
0.233466
0.246657
0.253298
0.253558
0.247614
0.23564
0.217813
0.194282
0.165097
0.13047
0.0913418
0.045348
)
;

boundaryField
{
    inlet
    {
        type            zeroGradient;
    }
    outlet
    {
        type            fixedValue;
        value           uniform 0;
    }
    upperWall
    {
        type            zeroGradient;
    }
    lowerWall
    {
        type            zeroGradient;
    }
    frontAndBack
    {
        type            empty;
    }
}


// ************************************************************************* //
