/*--------------------------------*- C++ -*----------------------------------*\
| =========                 |                                                 |
| \\      /  F ield         | OpenFOAM: The Open Source CFD Toolbox           |
|  \\    /   O peration     | Version:  2406                                  |
|   \\  /    A nd           | Website:  www.openfoam.com                      |
|    \\/     M anipulation  |                                                 |
\*---------------------------------------------------------------------------*/
FoamFile
{
    version     2.0;
    format      ascii;
    arch        "LSB;label=32;scalar=64";
    class       surfaceScalarField;
    location    "50";
    object      phi;
}
// * * * * * * * * * * * * * * * * * * * * * * * * * * * * * * * * * * * * * //

dimensions      [0 3 -1 0 0 0 0];

oriented        oriented;

internalField   nonuniform List<scalar> 
3680
(
0.921605
0.0783947
0.820863
0.100742
0.727537
0.0933245
0.649081
0.0784557
0.587132
0.0619489
0.541569
0.0455626
0.511239
0.0303279
0.494996
0.0162424
0.492499
0.00249486
-0.0210663
0.513564
1.05412
0.0242778
1.09008
0.0647821
1.10507
0.0783336
1.10492
0.0785985
1.09535
0.0715191
1.08161
0.0593029
1.06787
0.044071
1.05691
0.0271969
1.05042
0.00898532
-0.0123732
1.04172
1.01422
0.0100539
1.0471
0.0319063
1.08359
0.041842
1.1181
0.044088
1.14763
0.0419878
1.1709
0.0360303
1.18829
0.0266834
1.20073
0.0147575
1.20879
0.000921608
-0.0147298
1.21114
1.00601
0.00404481
1.02594
0.0119772
1.05219
0.01559
1.08092
0.0153528
1.11006
0.0128501
1.13768
0.0084098
1.16234
0.00202409
1.18318
-0.00608572
1.19976
-0.0156615
-0.0264724
1.21151
1.00522
-0.00117643
1.02074
-0.00354355
1.04244
-0.00610769
1.0668
-0.0090143
1.09207
-0.0124125
1.11691
-0.0164359
1.14014
-0.021209
1.1609
-0.0268383
1.17859
-0.0333527
-0.0406374
1.19275
1.00515
-0.00632246
1.02047
-0.0188658
1.04186
-0.0275044
1.06588
-0.033036
1.09082
-0.0373479
1.11541
-0.0410256
1.1385
-0.0443014
1.15927
-0.0476095
1.17722
-0.0513018
-0.055452
1.19204
1.00579
-0.01211
1.02524
-0.0383157
1.05089
-0.0531592
1.07903
-0.061174
1.10754
-0.0658641
1.1344
-0.0678827
1.15805
-0.0679543
1.17768
-0.0672311
1.19293
-0.0665582
-0.0662831
1.20376
1.01414
-0.0262493
1.04665
-0.0708283
1.08234
-0.088852
1.1152
-0.0940268
1.14166
-0.0923301
1.15999
-0.0862089
1.17025
-0.0782112
1.1734
-0.0703808
1.17053
-0.0636944
-0.0583822
1.16263
1.054
-0.0802507
1.08822
-0.105048
1.09926
-0.0998879
1.09235
-0.0871185
1.07276
-0.0727409
1.04538
-0.05883
1.01396
-0.0467956
0.980839
-0.0372557
0.947277
-0.0301312
-0.0250282
0.913924
0.919749
0.814701
0.714813
0.627695
0.554954
0.496124
0.449329
0.412073
0.381942
0.356914
-0.000450934
0.000450189
-0.00254293
0.00209016
-0.00567062
0.00312602
-0.0092118
0.00353977
-0.012879
0.00366598
-0.0165779
0.00369784
-0.020287
0.0037082
-0.0240014
0.0037135
-0.0277148
0.00371252
-0.031418
0.00370226
-0.0350996
0.00368066
-0.038747
0.00364633
-0.0423481
0.0035999
-0.0458911
0.00354166
-0.0493634
0.00347088
-0.0527519
0.00338691
-0.0560417
0.00328827
-0.0592156
0.00317222
-0.0622528
0.0030356
-0.065129
0.00287471
-0.0678162
0.00268594
-0.0702831
0.00246584
-0.0724948
0.00221101
-0.074414
0.00191883
-0.0760008
0.00158693
-0.0772134
0.00121329
-0.0780091
0.000796761
-0.0783452
0.000337787
-0.0781804
-0.000162932
-0.0774773
-0.000700729
-0.0762054
-0.00126932
-0.0743421
-0.00186001
-0.0718754
-0.00246312
-0.0688044
-0.00306651
-0.0651404
-0.00365926
-0.060905
-0.00422979
-0.0561321
-0.00476729
-0.0508665
-0.0052595
-0.0451646
-0.00569596
-0.0390911
-0.00606734
-0.0327162
-0.00636873
-0.0261132
-0.00659663
-0.0193584
-0.0067483
-0.0125284
-0.00682347
-0.00569673
-0.00682523
0.0010703
-0.00676065
0.00771065
-0.00663403
0.0141663
-0.00644947
0.020387
-0.00621455
0.0263295
-0.0059366
0.0319586
-0.00562325
0.0372464
-0.00528231
0.0421731
-0.0049214
0.0467258
-0.00454779
0.0508987
-0.00416822
0.0546919
-0.00378884
0.0581109
-0.00341504
0.061166
-0.00305152
0.0638714
-0.00270214
0.0662443
-0.00237005
0.0683044
-0.00205761
0.0700731
-0.00176654
0.0715729
-0.0014979
0.0728266
-0.00125221
0.0738573
-0.0010295
0.0746877
-0.000829418
0.0753397
-0.000651253
0.0758343
-0.000494062
0.0761914
-0.000356668
0.0764294
-0.000237783
0.0765656
-0.00013599
0.0766155
-4.98378e-05
0.0765933
2.21485e-05
0.076512
8.13765e-05
0.0763827
0.000129271
0.0762156
0.000167164
0.0760194
0.000196288
0.0758017
0.000217803
0.075569
0.000232822
0.0753267
0.00024239
0.0750793
0.000247484
0.0748305
0.000249038
0.0745827
0.000247893
0.0743379
0.000244935
0.0740968
0.000240872
0.0738596
0.00023734
0.0736245
0.000233755
0.0733864
0.000236873
0.0731402
0.000244688
0.00044651
-0.00272463
0.00317301
-0.00907635
0.00843721
-0.0173785
0.0114242
-0.0264498
0.0126078
-0.0356942
0.0129075
-0.0448678
0.0128688
-0.0538804
0.0127185
-0.062695
0.0125257
-0.0712873
0.0123024
-0.079634
0.0120465
-0.0877121
0.0117561
-0.0954985
0.01143
-0.102969
0.0110677
-0.110099
0.0106678
-0.116859
0.0102275
-0.123218
0.00974234
-0.129139
0.00920611
-0.134581
0.00861075
-0.139496
0.00794685
-0.143829
0.00720467
-0.147521
0.00637546
-0.150508
0.005452
-0.152727
0.004429
-0.154112
0.00330333
-0.154598
0.00207433
-0.154124
0.000741471
-0.152632
-0.000690857
-0.150077
-0.00221276
-0.146423
-0.00381197
-0.141645
-0.00547313
-0.135733
-0.00717413
-0.128695
-0.00888971
-0.120556
-0.0105919
-0.111362
-0.0122497
-0.101175
-0.0138341
-0.0900722
-0.0153201
-0.0781427
-0.0166831
-0.0654863
-0.0179021
-0.0522129
-0.018955
-0.0384465
-0.0198196
-0.024316
-0.0204847
-0.00994598
-0.0209521
0.00454671
-0.0212263
0.0190515
-0.0213138
0.033467
-0.0212266
0.0476945
-0.0209742
0.0616376
-0.0205635
0.0752076
-0.0200061
0.0883236
-0.0193175
0.100915
-0.0185149
0.11292
-0.0176167
0.124291
-0.0166414
0.134988
-0.0156075
0.144984
-0.014533
0.154261
-0.0134352
0.162811
-0.0123298
0.170636
-0.0112314
0.177745
-0.0101529
0.184154
-0.00910528
0.189889
-0.00809806
0.194975
-0.00713888
0.199447
-0.00623367
0.20334
-0.00538681
0.206692
-0.00460117
0.209543
-0.00387831
0.211935
-0.00321857
0.213906
-0.00262131
0.215498
-0.00208498
0.21675
-0.00160736
0.217698
-0.00118563
0.218379
-0.000816521
0.218826
-0.000496478
0.21907
-0.000221703
0.21914
1.17368e-05
0.219062
0.000207697
0.218859
0.000369855
0.218554
0.000501813
0.218165
0.0006071
0.217709
0.000689144
0.2172
0.00075121
0.216651
0.000796407
0.216073
0.000827656
0.215473
0.000847749
0.214859
0.000859268
0.214235
0.000864824
0.213604
0.000866977
0.212967
0.00086837
0.212322
0.000878378
0.211676
0.000888135
0.00105977
-0.00514135
0.00831238
-0.0154902
0.0187818
-0.0280029
0.0239333
-0.0410911
0.0256929
-0.0540308
0.0258445
-0.0665234
0.0253589
-0.0784523
0.024645
-0.0897693
0.0238403
-0.100449
0.0229795
-0.110472
0.0220674
-0.119821
0.0211035
-0.12848
0.0200862
-0.136427
0.0190129
-0.143641
0.017879
-0.150094
0.0166778
-0.155753
0.0153996
-0.160582
0.0140331
-0.164538
0.0125644
-0.167572
0.0109788
-0.169631
0.00926188
-0.170659
0.00740253
-0.170601
0.00539414
-0.169406
0.00323399
-0.167024
0.000922279
-0.163416
-0.00153271
-0.158555
-0.00411702
-0.152426
-0.00681656
-0.145021
-0.0096148
-0.13634
-0.0124882
-0.126402
-0.0154056
-0.115241
-0.018329
-0.102907
-0.0212169
-0.089464
-0.0240264
-0.0749981
-0.0267068
-0.0596097
-0.0292134
-0.0434087
-0.0315116
-0.0265139
-0.0335679
-0.0090564
-0.0353492
0.00882821
-0.0368293
0.0270183
-0.0379994
0.0454065
-0.038863
0.0638822
-0.0394181
0.0823295
-0.039664
0.100634
-0.0396092
0.118684
-0.0392673
0.136374
-0.0386546
0.15361
-0.0377896
0.170307
-0.0366941
0.186393
-0.0353935
0.201802
-0.0339153
0.216483
-0.032288
0.230391
-0.0305407
0.243494
-0.0287023
0.255769
-0.0268007
0.267204
-0.0248625
0.277794
-0.0229124
0.287542
-0.0209732
0.29646
-0.0190652
0.304566
-0.0172063
0.311884
-0.0154117
0.318444
-0.0136942
0.324277
-0.0120638
0.329422
-0.0105285
0.333917
-0.00909366
0.337803
-0.00776286
0.341124
-0.00653764
0.343922
-0.0054179
0.34624
-0.00440211
0.348121
-0.00348748
0.349606
-0.00267017
0.350735
-0.00194553
0.351547
-0.00130825
0.352078
-0.000752501
0.352362
-0.000272145
0.35243
0.000139111
0.352313
0.000487391
0.352036
0.00077868
0.351625
0.00101905
0.351099
0.00121447
0.35048
0.00137072
0.349784
0.00149331
0.349024
0.00158752
0.348214
0.00165825
0.347364
0.00171024
0.346481
0.00174768
0.345572
0.00177535
0.344643
0.00179592
0.343697
0.00182098
0.342753
0.00182976
0.00199011
-0.00728554
0.0155964
-0.0207846
0.0322767
-0.0360741
0.0392193
-0.0512384
0.0408543
-0.0655506
0.0401541
-0.0787626
0.0385684
-0.0908076
0.0366877
-0.101683
0.0347137
-0.111406
0.0327003
-0.119996
0.0306551
-0.127469
0.0285749
-0.133838
0.0264531
-0.139107
0.0242801
-0.143275
0.0220453
-0.146334
0.0197353
-0.14827
0.0173343
-0.149065
0.014826
-0.148694
0.0121922
-0.14713
0.00941465
-0.144347
0.00647802
-0.140317
0.00337135
-0.135014
9.12273e-05
-0.128426
-0.00335321
-0.120558
-0.00694544
-0.111417
-0.0106718
-0.101019
-0.0145141
-0.0893846
-0.0184483
-0.0765491
-0.0224476
-0.0625585
-0.0264754
-0.047474
-0.0304861
-0.0313719
-0.0344265
-0.0143458
-0.0382378
0.00349241
-0.0418594
0.0220289
-0.0452384
0.041159
-0.0483389
0.0607768
-0.0511249
0.0807698
-0.0535565
0.101026
-0.0556006
0.121435
-0.0572337
0.141886
-0.0584452
0.162261
-0.0592329
0.182448
-0.0595993
0.202342
-0.059552
0.221845
-0.0591058
0.240865
-0.0582816
0.259321
-0.0571044
0.277142
-0.0556031
0.294264
-0.05381
0.310637
-0.0517601
0.326219
-0.0494908
0.340978
-0.0470402
0.35489
-0.0444466
0.367941
-0.0417474
0.380125
-0.0389787
0.391442
-0.0361748
0.401902
-0.0333671
0.411518
-0.0305846
0.42031
-0.0278529
0.428302
-0.0251945
0.435522
-0.0226287
0.442002
-0.0201716
0.447777
-0.017836
0.452882
-0.0156317
0.457356
-0.0135659
0.461237
-0.011643
0.464566
-0.00986511
0.467381
-0.0082323
0.469722
-0.00674274
0.471628
-0.00539301
0.473136
-0.00417834
0.474283
-0.00309284
0.475105
-0.00212972
0.475634
-0.00128152
0.475902
-0.000540311
0.475939
0.00010199
0.475773
0.000653504
0.475429
0.00112254
0.474931
0.00151739
0.474299
0.00184624
0.473553
0.00211702
0.47271
0.00233738
0.471783
0.0025146
0.470787
0.00265558
0.469731
0.00276679
0.468625
0.00285415
0.467476
0.00292373
0.466292
0.00297841
0.465079
0.00303212
0.463854
0.00305327
0.003223
-0.00908036
0.0246747
-0.0244235
0.0476158
-0.0404177
0.0552102
-0.0550979
0.0555316
-0.0679402
0.0529937
-0.0788804
0.0495062
-0.0879932
0.045798
-0.0953872
0.0421053
-0.101167
0.0384773
-0.10542
0.034906
-0.108219
0.031372
-0.109621
0.027854
-0.109672
0.0243285
-0.108401
0.020773
-0.105833
0.0171649
-0.10198
0.0134803
-0.0968536
0.00969761
-0.0904593
0.00579635
-0.0828026
0.00175683
-0.0738908
-0.00243488
-0.0637389
-0.00678126
-0.0523728
-0.0112754
-0.0398207
-0.0159054
-0.0261146
-0.0206514
-0.0112958
-0.0254901
0.00458499
-0.0303941
0.0214646
-0.0353268
0.0392627
-0.0402443
0.0578886
-0.0450997
0.0772462
-0.0498419
0.0972356
-0.054414
0.117755
-0.0587554
0.138703
-0.0628063
0.159981
-0.0665145
0.181479
-0.0698358
0.203085
-0.0727302
0.224692
-0.0751614
0.246194
-0.0771008
0.267492
-0.0785296
0.288488
-0.0794396
0.30909
-0.0798321
0.32921
-0.0797156
0.348767
-0.0791058
0.36769
-0.0780256
0.385917
-0.0765041
0.403392
-0.0745756
0.420071
-0.0722783
0.435919
-0.0696542
0.450911
-0.0667475
0.465028
-0.063604
0.478262
-0.0602702
0.490612
-0.056792
0.502082
-0.0532137
0.512685
-0.049578
0.522438
-0.0459245
0.531363
-0.0422896
0.539488
-0.0387065
0.546842
-0.0352041
0.553457
-0.0318079
0.55937
-0.0285391
0.564615
-0.0254154
0.569231
-0.0224506
0.573255
-0.0196552
0.576726
-0.0170362
0.579682
-0.0145979
0.582159
-0.012342
0.584194
-0.0102675
0.585823
-0.00837166
0.58708
-0.0066498
0.587997
-0.00509577
0.588606
-0.00370217
0.588937
-0.00246059
0.589017
-0.0013619
0.588873
-0.000396707
0.58853
0.000444597
0.588011
0.00117217
0.587338
0.00179644
0.586527
0.00232763
0.585598
0.00277572
0.584565
0.0031504
0.583442
0.00346101
0.582241
0.00371645
0.580972
0.00392515
0.579645
0.00409498
0.578267
0.00423315
0.576844
0.00434648
0.575383
0.00443923
0.573888
0.00452492
0.572374
0.00456687
0.00475849
-0.0105807
0.0352539
-0.0260046
0.0630354
-0.0398174
0.0690193
-0.0506651
0.0663762
-0.0586152
0.060941
-0.0639561
0.0548441
-0.0669782
0.0488172
-0.0679418
0.0430659
-0.0670577
0.0375904
-0.0644884
0.0323342
-0.0603614
0.0272426
-0.0547809
0.0222712
-0.0478277
0.017373
-0.0395638
0.0125069
-0.0300402
0.00763912
-0.0192992
0.00273731
-0.00737608
-0.00222742
0.00569876
-0.00728014
0.0198919
-0.0124378
0.0351615
-0.0177057
0.0514577
-0.0230786
0.0687252
-0.0285438
0.0869013
-0.0340824
0.105918
-0.0396684
0.125698
-0.0452704
0.146156
-0.0508526
0.167203
-0.0563733
0.188744
-0.0617851
0.21068
-0.0670361
0.23291
-0.0720712
0.255329
-0.0768328
0.277836
-0.0812622
0.300333
-0.0853031
0.322723
-0.0889049
0.344911
-0.0920238
0.366804
-0.0946225
0.388313
-0.0966704
0.409358
-0.0981451
0.429863
-0.099034
0.44976
-0.099335
0.468984
-0.0990551
0.48748
-0.09821
0.505199
-0.0968233
0.522101
-0.0949254
0.538152
-0.0925536
0.553328
-0.0897499
0.567613
-0.0865608
0.580997
-0.0830358
0.593478
-0.0792266
0.605062
-0.0751859
0.615761
-0.0709663
0.62559
-0.0666194
0.634573
-0.0621947
0.642736
-0.0577389
0.650109
-0.0532956
0.656725
-0.0489041
0.662619
-0.0445999
0.66783
-0.0404137
0.672395
-0.0363721
0.676354
-0.0324971
0.679745
-0.0288062
0.682608
-0.0253133
0.684981
-0.022028
0.686902
-0.0189566
0.688406
-0.0161022
0.689528
-0.0134649
0.690303
-0.0110426
0.690761
-0.00883054
0.690934
-0.00682249
0.690848
-0.0050105
0.69053
-0.00338537
0.690006
-0.00193688
0.689298
-0.000654505
0.688429
0.00047263
0.687417
0.00145639
0.68628
0.00230904
0.685033
0.0030426
0.683692
0.00366888
0.682269
0.00419939
0.680774
0.0046453
0.679218
0.00501734
0.67761
0.00532573
0.675955
0.00558008
0.674262
0.00578941
0.672534
0.00596177
0.670775
0.0061054
0.66899
0.00622384
0.667181
0.00633305
0.665353
0.00639392
0.00659915
-0.0117514
0.0470032
-0.0245227
0.0758023
-0.031783
0.0762759
-0.0342067
0.0687964
-0.0330557
0.0597866
-0.0290853
0.0508703
-0.0227807
0.0425092
-0.0145216
0.0348032
-0.00459381
0.0276593
0.00679445
0.0209427
0.0194877
0.0145464
0.0333663
0.0083898
0.0483381
0.00239851
0.0643331
-0.00349061
0.0813031
-0.00933318
0.0992029
-0.0151647
0.11798
-0.021006
0.13757
-0.0268721
0.157904
-0.0327728
0.178907
-0.0387101
0.200503
-0.0446767
0.222616
-0.0506574
0.245162
-0.05663
0.268059
-0.0625659
0.291219
-0.0684305
0.31455
-0.0741847
0.337961
-0.0797843
0.361356
-0.085181
0.384644
-0.0903234
0.40773
-0.0951582
0.430528
-0.099631
0.452954
-0.103688
0.47493
-0.107279
0.496383
-0.110358
0.517246
-0.112887
0.537458
-0.114835
0.556964
-0.116176
0.575715
-0.116897
0.593672
-0.11699
0.610798
-0.116461
0.627065
-0.115322
0.64245
-0.113595
0.656938
-0.111311
0.670518
-0.108505
0.683187
-0.105222
0.694948
-0.10151
0.705809
-0.0974211
0.715784
-0.0930102
0.724892
-0.0883344
0.733158
-0.0834509
0.740608
-0.0784165
0.747275
-0.0732861
0.753193
-0.0681124
0.758398
-0.0629441
0.762929
-0.0578265
0.766825
-0.0528
0.770125
-0.0479005
0.772871
-0.043159
0.7751
-0.0386016
0.776852
-0.0342495
0.778164
-0.0301194
0.779074
-0.0262237
0.779616
-0.0225707
0.779824
-0.019165
0.779729
-0.0160081
0.779361
-0.0130984
0.778749
-0.0104316
0.77792
-0.00800164
0.776896
-0.00580015
0.775702
-0.00381745
0.774359
-0.0020426
0.772885
-0.000464286
0.771301
0.000929649
0.76962
0.00215275
0.767857
0.00321862
0.766025
0.00414067
0.764135
0.00493223
0.762197
0.00560642
0.76022
0.00617604
0.758212
0.00665347
0.756179
0.00705056
0.754126
0.0073786
0.752059
0.00764819
0.749979
0.00786919
0.747891
0.0080508
0.745795
0.00820097
0.743693
0.00832655
0.741586
0.00843941
0.739468
0.00851106
0.00870165
-0.0118302
0.0588313
-0.0154443
0.0794119
-0.00839077
0.0692185
0.00424415
0.0561579
0.0196661
0.0443614
0.0369445
0.0335887
0.0556544
0.0237961
0.0754597
0.0149946
0.0961303
0.00698564
0.117517
-0.000447086
0.139529
-0.00746764
0.162109
-0.0141924
0.185199
-0.0206945
0.208738
-0.0270314
0.232653
-0.0332507
0.256876
-0.0393887
0.281338
-0.0454699
0.305974
-0.05151
0.330717
-0.0575171
0.355497
-0.0634912
0.380244
-0.0694244
0.404887
-0.0753013
0.429355
-0.0810992
0.453578
-0.0867895
0.477485
-0.0923376
0.501004
-0.0977047
0.524068
-0.102848
0.546608
-0.107721
0.568561
-0.112277
0.589867
-0.116465
0.610472
-0.120236
0.630327
-0.123543
0.64939
-0.126342
0.667625
-0.128594
0.685001
-0.130264
0.701494
-0.131328
0.717085
-0.131767
0.73176
-0.131572
0.74551
-0.130741
0.758334
-0.129285
0.770231
-0.12722
0.781208
-0.124573
0.791277
-0.12138
0.800452
-0.117681
0.808753
-0.113525
0.816206
-0.108964
0.822839
-0.104055
0.828683
-0.0988561
0.833777
-0.0934284
0.838156
-0.0878317
0.841864
-0.0821247
0.84494
-0.0763638
0.847429
-0.0706021
0.849372
-0.0648889
0.850813
-0.0592686
0.851793
-0.0537809
0.852352
-0.0484604
0.852527
-0.0433362
0.852357
-0.0384326
0.851875
-0.0337688
0.851114
-0.0293592
0.850103
-0.0252141
0.848871
-0.0213397
0.847443
-0.0177384
0.845843
-0.0144096
0.844093
-0.0113498
0.842213
-0.00855308
0.840222
-0.00601138
0.838135
-0.00371486
0.835969
-0.00165244
0.833738
0.000187635
0.831454
0.00181865
0.829128
0.00325505
0.826768
0.00451114
0.824385
0.0056012
0.821985
0.00653962
0.819576
0.00734065
0.817164
0.00801833
0.814753
0.00858632
0.812349
0.00905782
0.809953
0.00944549
0.807571
0.00976133
0.805202
0.0100166
0.80285
0.010222
0.800513
0.010387
0.798194
0.010521
0.795888
0.010631
0.7936
0.0107277
0.791312
0.0107989
0.0109382
-0.00303414
0.0618633
0.022059
0.0543148
0.0563988
0.0348757
0.0913953
0.0211587
0.125529
0.0102253
0.158781
0.000334026
0.191237
-0.00866276
0.222995
-0.0167664
0.254128
-0.0241495
0.284687
-0.0310086
0.31469
-0.0374727
0.34413
-0.0436345
0.373004
-0.0495696
0.40131
-0.0553394
0.429047
-0.06099
0.45621
-0.0665531
0.482788
-0.0720486
0.508764
-0.0774877
0.53412
-0.0828743
0.558833
-0.0882047
0.582876
-0.0934686
0.606222
-0.0986484
0.628843
-0.103721
0.65071
-0.108656
0.671792
-0.11342
0.692062
-0.117975
0.711493
-0.122279
0.730058
-0.126287
0.747736
-0.129954
0.764504
-0.133233
0.780349
-0.13608
0.795255
-0.13845
0.809215
-0.140303
0.822224
-0.141603
0.834281
-0.142321
0.845387
-0.142435
0.855548
-0.141929
0.864774
-0.140799
0.873079
-0.139046
0.880478
-0.136685
0.886994
-0.133737
0.892651
-0.130232
0.89748
-0.12621
0.901514
-0.121716
0.904791
-0.116803
0.907352
-0.111527
0.909244
-0.105948
0.910514
-0.100128
0.911211
-0.0941275
0.911385
-0.0880089
0.911089
-0.0818307
0.910372
-0.0756485
0.909281
-0.0695139
0.907864
-0.063474
0.906164
-0.0575707
0.904221
-0.0518403
0.902073
-0.0463141
0.899753
-0.0410179
0.897291
-0.0359723
0.894713
-0.031193
0.892044
-0.0266914
0.889302
-0.0224746
0.886507
-0.018546
0.883673
-0.0149057
0.880813
-0.0115507
0.877937
-0.00847581
0.875056
-0.00567326
0.872177
-0.00313357
0.869307
-0.000845973
0.866452
0.00120166
0.863615
0.00302299
0.8608
0.00463212
0.858011
0.00604333
0.85525
0.00727121
0.85252
0.00833054
0.849822
0.00923607
0.84716
0.0100024
0.844533
0.010644
0.841944
0.0111747
0.839393
0.0116081
0.836881
0.0119571
0.834408
0.0122341
0.831973
0.0124506
0.829577
0.0126176
0.827218
0.0127455
0.824895
0.0128429
0.822606
0.0129203
0.820351
0.0129821
0.818109
0.0130406
0.013098
0.0925729
-0.0307119
0.16914
-0.0222545
0.231169
-0.0271555
0.285459
-0.033132
0.333973
-0.0382903
0.377819
-0.0435145
0.417965
-0.0488105
0.455143
-0.0539458
0.489856
-0.0588645
0.522458
-0.0636117
0.553216
-0.0682321
0.582338
-0.0727572
0.609982
-0.0772152
0.636273
-0.0816322
0.66131
-0.0860282
0.685171
-0.0904151
0.707919
-0.0947968
0.729602
-0.0991715
0.750258
-0.103532
0.769919
-0.107866
0.788604
-0.112155
0.806332
-0.116377
0.823115
-0.120503
0.83896
-0.124502
0.853874
-0.128334
0.86786
-0.131961
0.880921
-0.135339
0.893056
-0.138422
0.904267
-0.141164
0.914553
-0.143519
0.923915
-0.145442
0.932355
-0.146889
0.939875
-0.147822
0.946479
-0.148208
0.952176
-0.148018
0.956976
-0.147234
0.960891
-0.145845
0.963941
-0.143849
0.966147
-0.141254
0.96754
-0.138079
0.968152
-0.134351
0.968025
-0.130106
0.967203
-0.12539
0.965738
-0.120253
0.963685
-0.114753
0.961103
-0.108948
0.958055
-0.102903
0.954602
-0.0966782
0.950809
-0.0903371
0.946736
-0.0839392
0.942443
-0.0775408
0.937986
-0.071194
0.933415
-0.0649462
0.928778
-0.0588395
0.924115
-0.0529104
0.919462
-0.0471901
0.91485
-0.0417041
0.910303
-0.0364731
0.905841
-0.0315125
0.90148
-0.0268338
0.89723
-0.022444
0.893101
-0.0183466
0.889095
-0.014542
0.885215
-0.0110276
0.881461
-0.0077984
0.877832
-0.00484737
0.874322
-0.00216548
0.87093
0.000257892
0.867648
0.00243446
0.864472
0.00437695
0.861395
0.00609852
0.858413
0.0076129
0.855521
0.00893423
0.852714
0.0100769
0.849988
0.0110553
0.847339
0.011884
0.844764
0.0125772
0.842257
0.013149
0.839818
0.013613
0.837443
0.0139825
0.835128
0.0142703
0.832873
0.0144884
0.830674
0.0146484
0.82853
0.014761
0.826438
0.0148367
0.824396
0.0148846
0.8224
0.0149156
0.820451
0.0149307
0.818527
0.0149648
0.0149227
0.532527
-0.0496769
0.570046
-0.0597746
0.606748
-0.0638577
0.641279
-0.0676636
0.673884
-0.0708949
0.70411
-0.0737411
0.731889
-0.0765902
0.757475
-0.0795327
0.781142
-0.0825321
0.803103
-0.0855733
0.823535
-0.0886647
0.842592
-0.0918149
0.860404
-0.0950276
0.877076
-0.0983044
0.892692
-0.101645
0.907322
-0.105045
0.921022
-0.108497
0.933838
-0.111988
0.945807
-0.115501
0.956956
-0.119015
0.967307
-0.122506
0.976874
-0.125943
0.985665
-0.129295
0.993685
-0.132521
1.00093
-0.135583
1.00741
-0.138434
1.0131
-0.141029
1.018
-0.14332
1.02209
-0.145259
1.02537
-0.146799
1.02783
-0.147896
1.02945
-0.148509
1.03023
-0.148601
1.03016
-0.148143
1.02926
-0.147114
1.02752
-0.1455
1.02498
-0.143299
1.02164
-0.140518
1.01756
-0.137174
1.01278
-0.133294
1.00734
-0.128914
1.00131
-0.12408
0.99476
-0.118843
0.987762
-0.113259
0.980395
-0.107389
0.972739
-0.101295
0.964872
-0.0950391
0.956874
-0.0886831
0.948818
-0.0822851
0.940776
-0.0758999
0.932809
-0.0695777
0.924976
-0.0633638
0.917325
-0.0572979
0.909897
-0.0514142
0.902725
-0.0457413
0.895835
-0.0403028
0.889245
-0.035117
0.882968
-0.0301979
0.877009
-0.0255552
0.871368
-0.0211948
0.866042
-0.0171195
0.861023
-0.0133291
0.8563
-0.00982097
0.851862
-0.00659029
0.847693
-0.0036303
0.843776
-0.000932156
0.840096
0.00151407
0.836634
0.00371865
0.833375
0.00569266
0.830303
0.00744799
0.827403
0.00899718
0.824662
0.0103532
0.822066
0.0115293
0.819603
0.0125387
0.817262
0.0133952
0.815033
0.0141119
0.812907
0.0147023
0.810875
0.0151793
0.808932
0.0155557
0.807069
0.015844
0.805282
0.0160561
0.803565
0.0162034
0.801916
0.0162969
0.800328
0.016347
0.7988
0.0163637
0.797328
0.0163555
0.795909
0.0163345
0.794542
0.0162977
0.79321
0.0162968
0.0161558
1.02705
-0.0350033
1.01834
-0.0510642
1.01505
-0.0605727
1.01498
-0.0675942
1.01741
-0.0733184
1.02158
-0.0779152
1.02676
-0.0817654
1.03244
-0.0852203
1.03836
-0.0884502
1.04433
-0.0915378
1.05021
-0.0945467
1.05592
-0.097527
1.0614
-0.100511
1.06662
-0.103516
1.07152
-0.106552
1.0761
-0.109619
1.08031
-0.112712
1.08414
-0.115821
1.08757
-0.118926
1.09056
-0.122007
1.09309
-0.125034
1.09513
-0.127976
1.09663
-0.130798
1.09757
-0.133457
1.0979
-0.135912
1.09758
-0.138117
1.09658
-0.140027
1.09486
-0.141594
1.09237
-0.142773
1.0891
-0.143522
1.085
-0.143802
1.08008
-0.143581
1.07431
-0.14283
1.0677
-0.141532
1.06026
-0.139678
1.05203
-0.137266
1.04303
-0.134308
1.03334
-0.130824
1.02301
-0.126842
1.01211
-0.122401
1.00075
-0.117548
0.988998
-0.112335
0.97697
-0.106816
0.964761
-0.101053
0.952474
-0.0951044
0.940207
-0.0890304
0.928053
-0.0828883
0.916099
-0.0767325
0.904424
-0.0706132
0.893096
-0.0645756
0.882175
-0.0586597
0.871708
-0.0529003
0.861734
-0.0473265
0.852279
-0.0419624
0.843363
-0.036827
0.834992
-0.031935
0.82717
-0.0272968
0.81989
-0.0229193
0.813139
-0.0188064
0.806902
-0.0149591
0.801157
-0.0113761
0.795881
-0.00805426
0.791048
-0.00498859
0.786629
-0.00217232
0.782595
0.000403318
0.778916
0.00274627
0.775564
0.00486478
0.772514
0.00676838
0.769738
0.00846739
0.767213
0.00997258
0.764915
0.0112951
0.762821
0.0124463
0.760911
0.0134378
0.759168
0.0142814
0.757573
0.0149888
0.756112
0.0155718
0.754771
0.016042
0.753539
0.016411
0.752403
0.01669
0.751355
0.0168902
0.750388
0.0170223
0.749493
0.0170965
0.748666
0.017123
0.7479
0.0171111
0.747192
0.0170703
0.746538
0.0170086
0.745935
0.0169371
0.745381
0.0168516
0.744868
0.0168104
0.0165896
1.2074
-0.0312586
1.2016
-0.0452622
1.19627
-0.0552393
1.19148
-0.0628072
1.18729
-0.0691286
1.18383
-0.0744557
1.18105
-0.0789839
1.17881
-0.0829837
1.17701
-0.0866463
1.17555
-0.0900737
1.17433
-0.0933335
1.17329
-0.0964795
1.17233
-0.0995506
1.17138
-0.10257
1.17038
-0.10555
1.16925
-0.108493
1.16794
-0.111395
1.16636
-0.114245
1.16446
-0.117024
1.16217
-0.11971
1.15941
-0.122276
1.15612
-0.124688
1.15224
-0.126912
1.14769
-0.128909
1.14242
-0.130641
1.13637
-0.132067
1.1295
-0.133147
1.12175
-0.133844
1.1131
-0.134122
1.10353
-0.133951
1.09304
-0.133306
1.08162
-0.132167
1.06932
-0.130525
1.05617
-0.128377
1.04222
-0.12573
1.02755
-0.122599
1.01225
-0.119009
0.996423
-0.114993
0.98017
-0.11059
0.963614
-0.105847
0.946878
-0.100814
0.930086
-0.0955443
0.913361
-0.0900936
0.896822
-0.0845163
0.880581
-0.0788656
0.864739
-0.0731917
0.849389
-0.0675415
0.834611
-0.0619569
0.82047
-0.0564753
0.807021
-0.0511289
0.794303
-0.0459447
0.782345
-0.0409448
0.771162
-0.0361468
0.760762
-0.031564
0.751138
-0.0272058
0.74228
-0.0230784
0.734167
-0.0191854
0.726774
-0.0155275
0.72007
-0.0121039
0.714022
-0.00891193
0.708592
-0.00594776
0.703744
-0.00320603
0.699434
-0.000679354
0.695622
0.00163916
0.69227
0.00375495
0.689341
0.00567494
0.686799
0.00740707
0.684607
0.00895974
0.682733
0.0103415
0.681144
0.0115612
0.679811
0.0126279
0.678706
0.0135509
0.677803
0.0143396
0.677081
0.0150034
0.676517
0.015552
0.676092
0.0159951
0.675791
0.0163422
0.675598
0.016603
0.6755
0.0167869
0.675486
0.0169033
0.675546
0.0169613
0.675671
0.0169699
0.675854
0.0169379
0.676091
0.0168736
0.676374
0.0167853
0.676702
0.0166805
0.67707
0.0165683
0.677476
0.0164466
0.677921
0.0163654
0.016103
1.21809
-0.0378418
1.22104
-0.0482095
1.22232
-0.0565238
1.2227
-0.0631851
1.22244
-0.0688638
1.22179
-0.0738101
1.22094
-0.0781273
1.21992
-0.0819647
1.21873
-0.0854621
1.21737
-0.0887063
1.21579
-0.0917504
1.21394
-0.0946344
1.21178
-0.0973879
1.20924
-0.100029
1.20626
-0.102565
1.20276
-0.104997
1.19868
-0.107318
1.19396
-0.109516
1.18851
-0.111576
1.18228
-0.113476
1.1752
-0.115192
1.16721
-0.116698
1.15826
-0.117963
1.14832
-0.11896
1.13733
-0.119657
1.1253
-0.120026
1.11219
-0.12004
1.09802
-0.119675
1.08282
-0.118912
1.06661
-0.117737
1.04944
-0.11614
1.0314
-0.114121
1.01256
-0.111685
0.993029
-0.108845
0.97292
-0.10562
0.95236
-0.102038
0.931484
-0.0981327
0.910433
-0.0939418
0.889351
-0.089508
0.86838
-0.0848766
0.847659
-0.080094
0.827321
-0.075207
0.807486
-0.0702607
0.788266
-0.0652982
0.769757
-0.0603593
0.752043
-0.0554799
0.735191
-0.0506916
0.719253
-0.0460216
0.704268
-0.0414924
0.690259
-0.0371223
0.677238
-0.0329255
0.665203
-0.0289125
0.654145
-0.0250903
0.644043
-0.0214634
0.634869
-0.0180336
0.62659
-0.0148011
0.619168
-0.0117643
0.61256
-0.00892038
0.606721
-0.00626562
0.601605
-0.00379564
0.597161
-0.00150461
0.593341
0.000613916
0.590098
0.00256398
0.587387
0.00434989
0.585164
0.00597757
0.583386
0.007453
0.582011
0.00878241
0.580999
0.00997195
0.580313
0.0110281
0.579917
0.0119571
0.579779
0.0127659
0.579869
0.013461
0.580158
0.0140496
0.580623
0.0145385
0.581239
0.0149351
0.581987
0.0152467
0.582848
0.0154808
0.583805
0.0156447
0.584845
0.0157461
0.585955
0.0157924
0.587124
0.015791
0.588343
0.0157493
0.589605
0.0156747
0.590903
0.0155744
0.592232
0.0154555
0.593587
0.0153245
0.594967
0.015189
0.596364
0.0150494
0.597792
0.0149383
0.0146886
1.20322
-0.0483055
1.21062
-0.0556155
1.21604
-0.0619389
1.2201
-0.0672413
1.22303
-0.0718003
1.22501
-0.0757866
1.22615
-0.0792634
1.22649
-0.082304
1.22602
-0.0849955
1.22472
-0.0874061
1.22256
-0.0895803
1.21947
-0.091551
1.21543
-0.0933437
1.21038
-0.0949761
1.20427
-0.096458
1.19707
-0.0977927
1.18873
-0.0989785
1.17923
-0.100009
1.16853
-0.100875
1.15662
-0.101563
1.14349
-0.102057
1.12913
-0.102339
1.11356
-0.102391
1.0968
-0.102195
1.07888
-0.101734
1.05985
-0.100991
1.03977
-0.0999533
1.01871
-0.0986123
0.996761
-0.0969622
0.97403
-0.0950024
0.950629
-0.0927375
0.926688
-0.0901773
0.902342
-0.0873371
0.877737
-0.0842373
0.853022
-0.0809029
0.828348
-0.0773629
0.803866
-0.0736497
0.779722
-0.0697977
0.756057
-0.0658423
0.732999
-0.0618193
0.710668
-0.0577634
0.689168
-0.0537074
0.668588
-0.049682
0.649003
-0.0457143
0.630471
-0.0418285
0.613035
-0.0380449
0.596721
-0.0343802
0.581546
-0.0308477
0.567509
-0.0274573
0.554601
-0.024216
0.542802
-0.0211282
0.532084
-0.018196
0.522412
-0.0154196
0.513746
-0.0127981
0.50604
-0.0103289
0.499247
-0.00800895
0.493317
-0.00583455
0.488198
-0.00380161
0.483837
-0.00190552
0.480182
-0.000140531
0.47718
0.00149697
0.474785
0.00300931
0.472949
0.00440066
0.471623
0.00567527
0.470764
0.0068373
0.470327
0.00789075
0.47027
0.00883963
0.470554
0.00968789
0.471143
0.0104395
0.472002
0.0110987
0.473098
0.0116696
0.474403
0.0121567
0.475888
0.0125644
0.477528
0.0128976
0.479302
0.0131613
0.481188
0.0133606
0.483167
0.0135007
0.485224
0.0135871
0.487344
0.0136255
0.489514
0.0136213
0.491724
0.0135804
0.493964
0.0135085
0.496226
0.0134116
0.498504
0.0132956
0.500792
0.0131664
0.503086
0.0130304
0.505383
0.0128925
0.507675
0.0127592
0.509976
0.0126377
0.0124661
1.20361
-0.0598771
1.21219
-0.0642011
1.21831
-0.068048
1.22234
-0.071279
1.22451
-0.0739644
1.22492
-0.0761923
1.22366
-0.0780058
1.2208
-0.0794473
1.21638
-0.0805749
1.21042
-0.0814452
1.20295
-0.0821015
1.19397
-0.0825766
1.18353
-0.0828968
1.17164
-0.083082
1.15833
-0.0831455
1.14363
-0.0830951
1.12759
-0.0829334
1.11024
-0.0826595
1.09164
-0.0822688
1.07183
-0.0817542
1.05088
-0.0811064
1.02886
-0.0803155
1.00584
-0.0793707
0.981915
-0.0782624
0.957167
-0.0769817
0.931703
-0.0755223
0.905633
-0.0738799
0.879078
-0.0720534
0.852165
-0.0700452
0.825027
-0.0678606
0.797802
-0.0655092
0.770631
-0.0630034
0.743656
-0.0603593
0.717016
-0.0575951
0.690847
-0.0547321
0.665279