/*--------------------------------*- C++ -*----------------------------------*\
| =========                 |                                                 |
| \\      /  F ield         | OpenFOAM: The Open Source CFD Toolbox           |
|  \\    /   O peration     | Version:  2406                                  |
|   \\  /    A nd           | Website:  www.openfoam.com                      |
|    \\/     M anipulation  |                                                 |
\*---------------------------------------------------------------------------*/
FoamFile
{
    version     2.0;
    format      ascii;
    arch        "LSB;label=32;scalar=64";
    class       volVectorField;
    location    "50";
    object      U;
}
// * * * * * * * * * * * * * * * * * * * * * * * * * * * * * * * * * * * * * //

dimensions      [0 1 -1 0 0 0 0];

internalField   nonuniform List<vector> 
1900
(
(9.35595 0.345672 0)
(8.58598 0.649377 0)
(7.77357 0.631692 0)
(6.88558 0.487399 0)
(6.13651 0.328847 0)
(5.59808 0.191993 0)
(5.23216 0.0838717 0)
(5.0019 -0.000103457 0)
(4.91142 -0.0701208 0)
(4.86761 -0.281711 0)
(10.218 0.490457 0)
(10.7266 0.994255 0)
(11.0323 1.10511 0)
(11.0933 1.04168 0)
(11.0152 0.906287 0)
(10.8849 0.733082 0)
(10.7435 0.543446 0)
(10.6152 0.349692 0)
(10.5236 0.153611 0)
(10.4525 -0.0774888 0)
(10.0252 0.191194 0)
(10.2642 0.44066 0)
(10.6375 0.55203 0)
(11.0183 0.585939 0)
(11.3448 0.566837 0)
(11.6068 0.497417 0)
(11.808 0.386579 0)
(11.9551 0.245913 0)
(12.0563 0.0823962 0)
(12.1104 -0.108627 0)
(10.0104 0.0705321 0)
(10.1295 0.18968 0)
(10.3645 0.254574 0)
(10.6575 0.271785 0)
(10.9574 0.255179 0)
(11.244 0.209391 0)
(11.5069 0.137213 0)
(11.7366 0.0426925 0)
(11.9244 -0.0703197 0)
(12.0676 -0.198801 0)
(10.0106 0.0136477 0)
(10.1068 0.0384657 0)
(10.2941 0.0453219 0)
(10.5363 0.0312246 0)
(10.7934 0.00107582 0)
(11.0469 -0.0423778 0)
(11.2888 -0.098508 0)
(11.5108 -0.166716 0)
(11.7049 -0.246055 0)
(11.8655 -0.334669 0)
(10.0105 -0.0366648 0)
(10.1053 -0.108803 0)
(10.2901 -0.167045 0)
(10.529 -0.211246 0)
(10.7825 -0.249229 0)
(11.033 -0.286499 0)
(11.2729 -0.326251 0)
(11.4943 -0.371151 0)
(11.6897 -0.422766 0)
(11.8544 -0.480611 0)
(10.0098 -0.0921763 0)
(10.1252 -0.255937 0)
(10.3546 -0.370075 0)
(10.6416 -0.444765 0)
(10.9355 -0.496914 0)
(11.2156 -0.533566 0)
(11.4702 -0.55982 0)
(11.6887 -0.582099 0)
(11.8643 -0.605199 0)
(11.9948 -0.630797 0)
(10.0247 -0.211489 0)
(10.2619 -0.50466 0)
(10.6308 -0.666251 0)
(11.0005 -0.758236 0)
(11.3045 -0.805424 0)
(11.5276 -0.811867 0)
(11.6693 -0.789542 0)
(11.7348 -0.75516 0)
(11.7339 -0.72054 0)
(11.6777 -0.690941 0)
(10.2196 -0.508937 0)
(10.7216 -1.04806 0)
(11.0009 -1.19453 0)
(11.0089 -1.16743 0)
(10.8474 -1.06983 0)
(10.5998 -0.93866 0)
(10.3031 -0.799904 0)
(9.97811 -0.673374 0)
(9.64189 -0.56839 0)
(9.30563 -0.486231 0)
(9.35046 -0.354317 0)
(8.55144 -0.671737 0)
(7.6852 -0.663892 0)
(6.71967 -0.52656 0)
(5.87284 -0.374463 0)
(5.21543 -0.246509 0)
(4.70263 -0.152561 0)
(4.29074 -0.0913546 0)
(3.95753 -0.0556021 0)
(3.68507 -0.036688 0)
(0.000517925 -0.000729021 0)
(-0.0126036 0.00300159 0)
(-0.0395337 0.00547803 0)
(-0.0738031 0.0063166 0)
(-0.110316 0.00659425 0)
(-0.147302 0.00678776 0)
(-0.184385 0.0070245 0)
(-0.221521 0.00729637 0)
(-0.258679 0.00757023 0)
(-0.295784 0.00781772 0)
(-0.332734 0.00801942 0)
(-0.369406 0.00815934 0)
(-0.405674 0.00824447 0)
(-0.44142 0.00828669 0)
(-0.476524 0.00829538 0)
(-0.510859 0.00828417 0)
(-0.544285 0.00826236 0)
(-0.576645 0.00822699 0)
(-0.607749 0.00817479 0)
(-0.637371 0.00809569 0)
(-0.66525 0.00798284 0)
(-0.691089 0.00782374 0)
(-0.714555 0.00760182 0)
(-0.735288 0.00729887 0)
(-0.752898 0.00690081 0)
(-0.766979 0.0063936 0)
(-0.777102 0.00576776 0)
(-0.782837 0.00502028 0)
(-0.783766 0.00414771 0)
(-0.77948 0.00314611 0)
(-0.769646 0.00200405 0)
(-0.753989 0.000730179 0)
(-0.732335 -0.000659021 0)
(-0.704616 -0.00212722 0)
(-0.670888 -0.00364251 0)
(-0.631317 -0.00517175 0)
(-0.586178 -0.00668163 0)
(-0.535866 -0.0081117 0)
(-0.480892 -0.00940559 0)
(-0.421868 -0.0105333 0)
(-0.359474 -0.0114867 0)
(-0.29443 -0.0122435 0)
(-0.227487 -0.0127828 0)
(-0.159414 -0.0131162 0)
(-0.0909769 -0.0132602 0)
(-0.0228926 -0.0132125 0)
(0.0442157 -0.0129672 0)
(0.109787 -0.0125517 0)
(0.173265 -0.0120074 0)
(0.234164 -0.0113578 0)
(0.29209 -0.0106254 0)
(0.346728 -0.00983323 0)
(0.397841 -0.00900322 0)
(0.445264 -0.00815539 0)
(0.488905 -0.00730753 0)
(0.528736 -0.00647507 0)
(0.564786 -0.00567088 0)
(0.597137 -0.0049053 0)
(0.625912 -0.00418622 0)
(0.65127 -0.00351927 0)
(0.673396 -0.00290802 0)
(0.692497 -0.00235418 0)
(0.708794 -0.00185795 0)
(0.722514 -0.00141828 0)
(0.73389 -0.00103312 0)
(0.743149 -0.000699732 0)
(0.750516 -0.000414856 0)
(0.756206 -0.000174846 0)
(0.760423 2.41108e-05 0)
(0.76336 0.000185919 0)
(0.765195 0.000314426 0)
(0.766092 0.000413444 0)
(0.766201 0.000486494 0)
(0.765657 0.000536781 0)
(0.76458 0.000567248 0)
(0.763077 0.000580763 0)
(0.761242 0.000579784 0)
(0.759156 0.000566744 0)
(0.75689 0.000543841 0)
(0.754504 0.000513276 0)
(0.752046 0.000476924 0)
(0.749557 0.000436669 0)
(0.747068 0.000393959 0)
(0.744602 0.000350929 0)
(0.742171 0.00030945 0)
(0.739777 0.000277678 0)
(0.737426 0.000258536 0)
(0.735096 0.000301503 0)
(0.732778 0.000354557 0)
(0.72843 0.00181832 0)
(-0.00527725 0.0139151 0)
(-0.0535601 0.0442116 0)
(-0.128979 0.0631331 0)
(-0.21811 0.0710835 0)
(-0.310755 0.073566 0)
(-0.403216 0.0740502 0)
(-0.494278 0.0739625 0)
(-0.583481 0.0737039 0)
(-0.670572 0.0733046 0)
(-0.755327 0.0727282 0)
(-0.837512 0.0719461 0)
(-0.916894 0.0709499 0)
(-0.993241 0.069736 0)
(-1.0663 0.0682981 0)
(-1.13582 0.066622 0)
(-1.20149 0.0646825 0)
(-1.26298 0.0624391 0)
(-1.3199 0.0598421 0)
(-1.3718 0.0568256 0)
(-1.41816 0.0533248 0)
(-1.45842 0.0492724 0)
(-1.49196 0.0446095 0)
(-1.51814 0.0392802 0)
(-1.5363 0.033243 0)
(-1.54578 0.026461 0)
(-1.54597 0.018911 0)
(-1.53625 0.0106014 0)
(-1.51609 0.00156434 0)
(-1.4851 -0.00816074 0)
(-1.44296 -0.0184863 0)
(-1.3895 -0.0292752 0)
(-1.3247 -0.0403638 0)
(-1.24871 -0.0515566 0)
(-1.1619 -0.0626391 0)
(-1.06482 -0.0734084 0)
(-0.958158 -0.0836713 0)
(-0.842756 -0.0932278 0)
(-0.719552 -0.1019 0)
(-0.589607 -0.109539 0)
(-0.4541 -0.115988 0)
(-0.314313 -0.121119 0)
(-0.17152 -0.124904 0)
(-0.0270071 -0.127357 0)
(0.118084 -0.128486 0)
(0.262856 -0.128366 0)
(0.406302 -0.1271 0)
(0.547372 -0.124715 0)
(0.685139 -0.121285 0)
(0.818751 -0.116958 0)
(0.947445 -0.11186 0)
(1.07056 -0.106122 0)
(1.18755 -0.0998767 0)
(1.29798 -0.093257 0)
(1.4015 -0.0863896 0)
(1.4979 -0.079394 0)
(1.58705 -0.0723799 0)
(1.66892 -0.0654456 0)
(1.74356 -0.058677 0)
(1.81111 -0.0521469 0)
(1.87177 -0.0459151 0)
(1.92581 -0.0400281 0)
(1.97352 -0.0345208 0)
(2.01526 -0.0294163 0)
(2.05139 -0.0247278 0)
(2.08232 -0.0204592 0)
(2.10844 -0.0166071 0)
(2.13016 -0.0131612 0)
(2.14788 -0.0101064 0)
(2.16201 -0.00742293 0)
(2.17293 -0.00508849 0)
(2.18099 -0.00307813 0)
(2.18655 -0.00136585 0)
(2.18994 7.53677e-05 0)
(2.19144 0.00127216 0)
(2.19134 0.00225068 0)
(2.18988 0.00303519 0)
(2.18729 0.00364899 0)
(2.18378 0.00411421 0)
(2.17951 0.00445226 0)
(2.17466 0.00468298 0)
(2.16934 0.00482531 0)
(2.16369 0.00489681 0)
(2.15778 0.00491423 0)
(2.15169 0.00489326 0)
(2.14549 0.00484904 0)
(2.1392 0.0048016 0)
(2.13287 0.00475729 0)
(2.12643 0.0047965 0)
(2.12054 0.00491215 0)
(2.11164 0.00673668 0)
(-0.0118485 0.0531695 0)
(-0.0964096 0.128186 0)
(-0.21399 0.168578 0)
(-0.345113 0.184176 0)
(-0.476582 0.187571 0)
(-0.604183 0.18613 0)
(-0.726444 0.182983 0)
(-0.842746 0.179145 0)
(-0.952779 0.174831 0)
(-1.05634 0.170049 0)
(-1.15325 0.164791 0)
(-1.24334 0.159049 0)
(-1.32642 0.15282 0)
(-1.40229 0.146083 0)
(-1.47068 0.138795 0)
(-1.53132 0.130887 0)
(-1.58386 0.122271 0)
(-1.62789 0.112831 0)
(-1.66296 0.102445 0)
(-1.68854 0.0909871 0)
(-1.7041 0.0783469 0)
(-1.70907 0.064434 0)
(-1.70292 0.0491893 0)
(-1.68514 0.0325917 0)
(-1.65524 0.0146791 0)
(-1.6129 -0.00449448 0)
(-1.55796 -0.024854 0)
(-1.49027 -0.0462732 0)
(-1.40979 -0.0685776 0)
(-1.31662 -0.0915335 0)
(-1.21101 -0.114825 0)
(-1.09336 -0.138096 0)
(-0.964261 -0.160982 0)
(-0.824471 -0.183089 0)
(-0.674925 -0.204024 0)
(-0.516689 -0.223454 0)
(-0.350894 -0.241087 0)
(-0.178752 -0.256646 0)
(-0.00175678 -0.26984 0)
(0.178737 -0.280475 0)
(0.361814 -0.288558 0)
(0.5464 -0.294118 0)
(0.731279 -0.297174 0)
(0.915298 -0.297804 0)
(1.09732 -0.296128 0)
(1.27624 -0.292257 0)
(1.45108 -0.28631 0)
(1.62093 -0.278451 0)
(1.78501 -0.268879 0)
(1.94263 -0.257814 0)
(2.0932 -0.245491 0)
(2.23623 -0.232149 0)
(2.37136 -0.218028 0)
(2.4983 -0.20336 0)
(2.61687 -0.188367 0)
(2.727 -0.173257 0)
(2.82867 -0.158219 0)
(2.92197 -0.143424 0)
(3.00705 -0.12902 0)
(3.08411 -0.115134 0)
(3.15343 -0.101871 0)
(3.21531 -0.0893136 0)
(3.27011 -0.0775249 0)
(3.31822 -0.0665483 0)
(3.36002 -0.0564095 0)
(3.39596 -0.0471185 0)
(3.42645 -0.0386714 0)
(3.45193 -0.0310524 0)
(3.47282 -0.0242356 0)
(3.48955 -0.0181866 0)
(3.50252 -0.0128648 0)
(3.51214 -0.00822441 0)
(3.51877 -0.00421628 0)
(3.52276 -0.000788681 0)
(3.52445 0.00211023 0)
(3.52414 0.00453044 0)
(3.52211 0.00652072 0)
(3.51861 0.00812952 0)
(3.51388 0.00940409 0)
(3.50811 0.01039 0)
(3.50149 0.0111304 0)
(3.49418 0.0116664 0)
(3.48631 0.0120366 0)
(3.47798 0.0122777 0)
(3.4693 0.0124239 0)
(3.46032 0.0125121 0)
(3.45114 0.0125697 0)
(3.44161 0.0126996 0)
(3.43314 0.0127606 0)
(3.4198 0.0144122 0)
(-0.0180201 0.116013 0)
(-0.133865 0.249855 0)
(-0.282194 0.31152 0)
(-0.438027 0.330456 0)
(-0.586646 0.329605 0)
(-0.724551 0.320945 0)
(-0.850864 0.309486 0)
(-0.96543 0.296943 0)
(-1.06838 0.283781 0)
(-1.1599 0.270076 0)
(-1.24019 0.255835 0)
(-1.30938 0.241034 0)
(-1.36756 0.225627 0)
(-1.41475 0.209544 0)
(-1.45091 0.192687 0)
(-1.47593 0.174922 0)
(-1.48963 0.156107 0)
(-1.49181 0.136078 0)
(-1.4822 0.114667 0)
(-1.46052 0.0917135 0)
(-1.4265 0.0670983 0)
(-1.37989 0.0407674 0)
(-1.3204 0.0127637 0)
(-1.24807 -0.0168382 0)
(-1.16296 -0.0479285 0)
(-1.0652 -0.0803399 0)
(-0.954935 -0.113869 0)
(-0.832452 -0.148308 0)
(-0.698162 -0.183362 0)
(-0.552601 -0.218634 0)
(-0.39644 -0.253658 0)
(-0.230503 -0.287921 0)
(-0.055794 -0.320873 0)
(0.126328 -0.351923 0)
(0.314838 -0.380679 0)
(0.508824 -0.406829 0)
(0.707126 -0.429996 0)
(0.908622 -0.449838 0)
(1.1122 -0.466123 0)
(1.31675 -0.478771 0)
(1.52114 -0.487768 0)
(1.72419 -0.493091 0)
(1.92482 -0.494761 0)
(2.12202 -0.492882 0)
(2.31483 -0.487616 0)
(2.50239 -0.479168 0)
(2.68393 -0.467776 0)
(2.85877 -0.453712 0)
(3.02636 -0.437278 0)
(3.18623 -0.418799 0)
(3.33799 -0.398611 0)
(3.48139 -0.377053 0)
(3.61623 -0.354461 0)
(3.74241 -0.33116 0)
(3.85991 -0.307457 0)
(3.96877 -0.28364 0)
(4.06911 -0.259972 0)
(4.1611 -0.236687 0)
(4.24496 -0.213994 0)
(4.32095 -0.192069 0)
(4.38937 -0.171061 0)
(4.45056 -0.15109 0)
(4.50488 -0.132249 0)
(4.55268 -0.114603 0)
(4.59436 -0.0981967 0)
(4.63032 -0.0830505 0)
(4.66094 -0.0691665 0)
(4.68663 -0.0565294 0)
(4.70777 -0.0451095 0)
(4.72475 -0.0348645 0)
(4.73794 -0.0257421 0)
(4.7477 -0.0176816 0)
(4.75437 -0.0106161 0)
(4.75828 -0.00447466 0)
(4.75974 0.000815743 0)
(4.75903 0.00532736 0)
(4.75642 0.0091328 0)
(4.75216 0.0123047 0)
(4.74646 0.0149148 0)
(4.73953 0.0170326 0)
(4.73154 0.0187252 0)
(4.72266 0.0200564 0)
(4.71301 0.0210864 0)
(4.70272 0.0218722 0)
(4.6919 0.0224653 0)
(4.68059 0.0229211 0)
(4.66896 0.0232671 0)
(4.6567 0.0236298 0)
(4.64592 0.023745 0)
(4.62831 0.0253282 0)
(-0.0240625 0.198585 0)
(-0.163453 0.39732 0)
(-0.325165 0.473192 0)
(-0.481836 0.486017 0)
(-0.620129 0.472215 0)
(-0.738897 0.448713 0)
(-0.838878 0.422244 0)
(-0.921139 0.395083 0)
(-0.986778 0.367809 0)
(-1.03675 0.340471 0)
(-1.07186 0.312989 0)
(-1.09275 0.285253 0)
(-1.09992 0.257118 0)
(-1.09375 0.228431 0)
(-1.07451 0.199022 0)
(-1.04238 0.1687 0)
(-0.997461 0.137285 0)
(-0.939837 0.1046 0)
(-0.869562 0.07046 0)
(-0.786677 0.0347021 0)
(-0.691288 -0.00277554 0)
(-0.583589 -0.0419598 0)
(-0.463908 -0.0827425 0)
(-0.33249 -0.124932 0)
(-0.1897 -0.168342 0)
(-0.0359685 -0.212737 0)
(0.128114 -0.257792 0)
(0.301762 -0.303143 0)
(0.484105 -0.348375 0)
(0.674251 -0.392993 0)
(0.87122 -0.436439 0)
(1.07401 -0.478105 0)
(1.28159 -0.517388 0)
(1.49296 -0.55379 0)
(1.70708 -0.586898 0)
(1.92286 -0.616295 0)
(2.13917 -0.641585 0)
(2.35494 -0.662448 0)
(2.56917 -0.678661 0)
(2.78086 -0.69011 0)
(2.98905 -0.696781 0)
(3.19285 -0.698724 0)
(3.3914 -0.696057 0)
(3.58395 -0.688972 0)
(3.76983 -0.677716 0)
(3.94845 -0.662588 0)
(4.11931 -0.643927 0)
(4.28202 -0.622107 0)
(4.43626 -0.597529 0)
(4.58184 -0.570611 0)
(4.7186 -0.541781 0)
(4.84651 -0.511464 0)
(4.96559 -0.480073 0)
(5.07591 -0.448006 0)
(5.17764 -0.415636 0)
(5.27098 -0.38331 0)
(5.35616 -0.351339 0)
(5.43348 -0.320003 0)
(5.50324 -0.289544 0)
(5.5658 -0.260171 0)
(5.6215 -0.232054 0)
(5.67072 -0.205331 0)
(5.71383 -0.180107 0)
(5.75121 -0.156455 0)
(5.78325 -0.134423 0)
(5.81033 -0.114031 0)
(5.8328 -0.0952784 0)
(5.85104 -0.0781427 0)
(5.86539 -0.0625855 0)
(5.87618 -0.0485536 0)
(5.88374 -0.0359816 0)
(5.88836 -0.0247943 0)
(5.89035 -0.0149091 0)
(5.88997 -0.00623942 0)
(5.88748 0.00130329 0)
(5.88312 0.00781071 0)
(5.8771 0.0133764 0)
(5.86964 0.0180934 0)
(5.8609 0.0220532 0)
(5.85106 0.0253449 0)
(5.84024 0.0280543 0)
(5.8286 0.0302631 0)
(5.81622 0.0320491 0)
(5.80322 0.0334848 0)
(5.78968 0.0346368 0)
(5.77564 0.0355699 0)
(5.76129 0.0363204 0)
(5.74611 0.0370249 0)
(5.73293 0.0373374 0)
(5.71097 0.0391187 0)
(-0.0306746 0.297575 0)
(-0.184705 0.555517 0)
(-0.335039 0.629441 0)
(-0.460023 0.621831 0)
(-0.553498 0.584253 0)
(-0.619119 0.537719 0)
(-0.660208 0.489899 0)
(-0.679562 0.443157 0)
(-0.679522 0.397861 0)
(-0.661913 0.353806 0)
(-0.628156 0.310697 0)
(-0.579402 0.268199 0)
(-0.516558 0.225951 0)
(-0.440343 0.183662 0)
(-0.351307 0.141058 0)
(-0.249882 0.0978533 0)
(-0.136454 0.0537929 0)
(-0.0113185 0.00862261 0)
(0.125219 -0.0378683 0)
(0.272716 -0.0857754 0)
(0.430702 -0.135068 0)
(0.59869 -0.185634 0)
(0.776088 -0.237313 0)
(0.962251 -0.289866 0)
(1.15645 -0.343013 0)
(1.35788 -0.396446 0)
(1.56564 -0.449798 0)
(1.77882 -0.502593 0)
(1.99646 -0.554298 0)
(2.21755 -0.60437 0)
(2.44104 -0.652225 0)
(2.66592 -0.697257 0)
(2.89117 -0.738876 0)
(3.11584 -0.776551 0)
(3.33895 -0.809823 0)
(3.55956 -0.838294 0)
(3.77676 -0.861625 0)
(3.98971 -0.879558 0)
(4.19763 -0.891932 0)
(4.39978 -0.89869 0)
(4.59552 -0.899872 0)
(4.78423 -0.895599 0)
(4.96541 -0.886066 0)
(5.13859 -0.871546 0)
(5.30341 -0.85237 0)
(5.45959 -0.828926 0)
(5.60692 -0.801642 0)
(5.74527 -0.770981 0)
(5.87459 -0.737427 0)
(5.99489 -0.701479 0)
(6.10626 -0.663638 0)
(6.20885 -0.624395 0)
(6.30285 -0.584227 0)
(6.38851 -0.543585 0)
(6.4661 -0.502889 0)
(6.53596 -0.462524 0)
(6.59843 -0.422837 0)
(6.65386 -0.38413 0)
(6.70265 -0.346668 0)
(6.74517 -0.31067 0)
(6.78183 -0.276315 0)
(6.81301 -0.243744 0)
(6.83909 -0.213061 0)
(6.86047 -0.184334 0)
(6.87751 -0.157601 0)
(6.89056 -0.132874 0)
(6.89997 -0.110137 0)
(6.90606 -0.0893559 0)
(6.90914 -0.0704749 0)
(6.90951 -0.0534248 0)
(6.90743 -0.038123 0)
(6.90316 -0.0244765 0)
(6.89695 -0.0123869 0)
(6.88901 -0.00175286 0)
(6.87956 0.00753254 0)
(6.86877 0.0155811 0)
(6.85682 0.0225052 0)
(6.84385 0.028416 0)
(6.82999 0.0334216 0)
(6.81538 0.037627 0)
(6.8001 0.0411331 0)
(6.78426 0.0440364 0)
(6.76793 0.0464274 0)
(6.75118 0.0483913 0)
(6.73406 0.0500046 0)
(6.71659 0.0513435 0)
(6.69898 0.0524456 0)
(6.68051 0.0534605 0)
(6.66464 0.0539985 0)
(6.63817 0.0560061 0)
(-0.03854 0.414954 0)
(-0.194372 0.705036 0)
(-0.294243 0.746067 0)
(-0.340435 0.69963 0)
(-0.344468 0.6285 0)
(-0.317286 0.553445 0)
(-0.264795 0.481219 0)
(-0.191181 0.413451 0)
(-0.0996623 0.34969 0)
(0.00739585 0.289073 0)
(0.128149 0.230901 0)
(0.261285 0.174527 0)
(0.405815 0.119323 0)
(0.560791 0.0647477 0)
(0.725735 0.0103263 0)
(0.900233 -0.0442878 0)
(1.08379 -0.0993499 0)
(1.27582 -0.155065 0)
(1.47564 -0.211572 0)
(1.68253 -0.268898 0)
(1.89573 -0.326951 0)
(2.11449 -0.385574 0)
(2.33801 -0.444552 0)
(2.56545 -0.503602 0)
(2.79597 -0.562381 0)
(3.02867 -0.620496 0)
(3.26262 -0.677503 0)
(3.49689 -0.732912 0)
(3.73054 -0.786198 0)
(3.96263 -0.836813 0)
(4.19227 -0.88419 0)
(4.41859 -0.92776 0)
(4.64078 -0.966981 0)
(4.85809 -1.00137 0)
(5.06982 -1.0305 0)
(5.27533 -1.05404 0)
(5.47403 -1.0717 0)
(5.66541 -1.0833 0)
(5.84903 -1.08875 0)
(6.02451 -1.08805 0)
(6.19153 -1.08132 0)
(6.34983 -1.06873 0)
(6.49921 -1.05057 0)
(6.63956 -1.02717 0)
(6.7708 -0.998944 0)
(6.89293 -0.966347 0)
(7.006 -0.929878 0)
(7.11013 -0.890066 0)
(7.20549 -0.847461 0)
(7.29228 -0.802616 0)
(7.37079 -0.756084 0)
(7.44129 -0.708403 0)
(7.50412 -0.660088 0)
(7.55965 -0.611624 0)
(7.60823 -0.563458 0)
(7.65027 -0.515995 0)
(7.68615 -0.469596 0)
(7.71628 -0.424575 0)
(7.74106 -0.381197 0)
(7.76087 -0.339684 0)
(7.7761 -0.300209 0)
(7.78713 -0.262905 0)
(7.7943 -0.227866 0)
(7.79797 -0.195146 0)
(7.79846 -0.164771 0)
(7.79608 -0.136733 0)
(7.79112 -0.111 0)
(7.78385 -0.0875201 0)
(7.77452 -0.0662188 0)
(7.76338 -0.0470081 0)
(7.75065 -0.0297867 0)
(7.73651 -0.0144463 0)
(7.72118 -0.000872654 0)
(7.70482 0.0110557 0)
(7.68757 0.0214666 0)
(7.66957 0.0304895 0)
(7.65093 0.0382526 0)
(7.63177 0.0448816 0)
(7.61217 0.0504991 0)
(7.59223 0.0552234 0)
(7.57201 0.0591684 0)
(7.55157 0.0624421 0)
(7.53096 0.0651463 0)
(7.51021 0.0673757 0)
(7.48938 0.0692171 0)
(7.46842 0.0707516 0)
(7.44756 0.0720306 0)
(7.42593 0.0731958 0)
(7.40751 0.0738939 0)
(7.37705 0.0759272 0)
(-0.0491266 0.563179 0)
(-0.165336 0.81387 0)
(-0.138435 0.769009 0)
(-0.0311446 0.667347 0)
(0.113251 0.560803 0)
(0.278535 0.458792 0)
(0.459588 0.365141 0)
(0.652937 0.280278 0)
(0.85582 0.202376 0)
(1.0665 0.129534 0)
(1.2836 0.0603109 0)
(1.50674 -0.00626426 0)
(1.73526 -0.0709145 0)
(1.96861 -0.134238 0)
(2.20608 -0.196717 0)
(2.44694 -0.25869 0)
(2.69054 -0.320378 0)
(2.93622 -0.381922 0)
(3.1833 -0.443398 0)
(3.43111 -0.504811 0)
(3.67893 -0.566087 0)
(3.92607 -0.627079 0)
(4.17181 -0.687562 0)
(4.41545 -0.747246 0)
(4.65629 -0.805781 0)
(4.8936 -0.86277 0)
(5.12669 -0.917774 0)
(5.35488 -0.97032 0)
(5.5775 -1.01991 0)
(5.79394 -1.06601 0)
(6.00363 -1.10813 0)
(6.20604 -1.14574 0)
(6.40072 -1.17838 0)
(6.58729 -1.20563 0)
(6.7654 -1.22713 0)
(6.93479 -1.2426 0)
(7.09524 -1.25184 0)
(7.24659 -1.25471 0)
(7.38872 -1.25121 0)
(7.52158 -1.24138 0)
(7.64516 -1.22541 0)
(7.7595 -1.20353 0)
(7.86469 -1.17606 0)
(7.96086 -1.14341 0)
(8.04817 -1.10603 0)
(8.12687 -1.06444 0)
(8.19721 -1.01917 0)
(8.25951 -0.970803 0)
(8.3141 -0.919928 0)
(8.36136 -0.867134 0)
(8.40169 -0.813003 0)
(8.4355 -0.758098 0)
(8.46322 -0.702951 0)
(8.48528 -0.648059 0)
(8.50209 -0.593875 0)
(8.5141 -0.540805 0)
(8.52169 -0.489206 0)
(8.52527 -0.439384 0)
(8.52522 -0.391595 0)
(8.52187 -0.346043 0)
(8.51558 -0.302889 0)
(8.50665 -0.262248 0)
(8.49537 -0.224193 0)
(8.48201 -0.188763 0)
(8.46681 -0.155963 0)
(8.45002 -0.125767 0)
(8.43182 -0.0981253 0)
(8.41242 -0.0729656 0)
(8.39199 -0.0501973 0)
(8.3707 -0.0297153 0)
(8.34867 -0.0114054 0)
(8.32607 0.00485598 0)
(8.303 0.019202 0)
(8.27955 0.0317733 0)
(8.25581 0.042712 0)
(8.23188 0.052159 0)
(8.20782 0.0602537 0)
(8.1837 0.067133 0)
(8.15958 0.0729303 0)
(8.13549 0.0777747 0)
(8.11148 0.0817896 0)
(8.08759 0.0850925 0)
(8.06383 0.0877937 0)
(8.04022 0.089996 0)
(8.01678 0.0917943 0)
(7.99346 0.0932754 0)
(7.97049 0.0945078 0)
(7.9469 0.0956079 0)
(7.92692 0.0963567 0)
(7.89427 0.0980686 0)
(-0.00818483 0.658617 0)
(0.067452 0.775974 0)
(0.371105 0.60776 0)
(0.733987 0.456843 0)
(1.0862 0.331413 0)
(1.42328 0.21787 0)
(1.75122 0.114813 0)
(2.07244 0.0228583 0)
(2.387 -0.0600745 0)
(2.69534 -0.136558 0)
(2.99818 -0.208325 0)
(3.29545 -0.276537 0)
(3.58706 -0.342041 0)
(3.87297 -0.405529 0)
(4.15319 -0.467532 0)
(4.42771 -0.528427 0)
(4.69645 -0.588464 0)
(4.95928 -0.647796 0)
(5.21601 -0.7065 0)
(5.46644 -0.764576 0)
(5.7103 -0.821947 0)
(5.94733 -0.878464 0)
(6.17724 -0.933911 0)
(6.39976 -0.988009 0)
(6.61458 -1.04043 0)
(6.82141 -1.09078 0)
(7.01999 -1.13866 0)
(7.21003 -1.18362 0)
(7.3913 -1.22519 0)
(7.56358 -1.2629 0)
(7.72669 -1.29628 0)
(7.88047 -1.32488 0)
(8.02481 -1.34829 0)
(8.15966 -1.36614 0)
(8.28498 -1.37813 0)
(8.40078 -1.38402 0)
(8.50708 -1.38365 0)
(8.60398 -1.37694 0)
(8.69159 -1.36392 0)
(8.77005 -1.34469 0)
(8.83956 -1.31945 0)
(8.90035 -1.28848 0)
(8.9527 -1.25215 0)
(8.99691 -1.21089 0)
(9.03336 -1.16521 0)
(9.06243 -1.11565 0)
(9.08458 -1.06279 0)
(9.10026 -1.00724 0)
(9.10996 -0.949608 0)
(9.11419 -0.890506 0)
(9.11346 -0.830527 0)
(9.10826 -0.770238 0)
(9.0991 -0.710167 0)
(9.08645 -0.650802 0)
(9.07077 -0.592581 0)
(9.05246 -0.53589 0)
(9.03192 -0.481063 0)
(9.0095 -0.428381 0)
(8.98551 -0.378071 0)
(8.96026 -0.330312 0)
(8.93397 -0.285237 0)
(8.90687 -0.242933 0)
(8.87915 -0.203452 0)
(8.85097 -0.166806 0)
(8.82247 -0.132979 0)
(8.79377 -0.101927 0)
(8.76496 -0.0735809 0)
(8.73615 -0.0478531 0)
(8.70738 -0.0246396 0)
(8.67874 -0.00382319 0)
(8.65028 0.0147239 0)
(8.62202 0.0311391 0)
(8.59399 0.0455693 0)
(8.56623 0.0581618 0)
(8.53877 0.069064 0)
(8.51162 0.0784228 0)
(8.48482 0.0863839 0)
(8.45837 0.0930907 0)
(8.43229 0.0986828 0)
(8.40659 0.103295 0)
(8.38127 0.107057 0)
(8.35634 0.110091 0)
(8.33181 0.112514 0)
(8.30765 0.114432 0)
(8.28389 0.115948 0)
(8.26045 0.117152 0)
(8.23754 0.118132 0)
(8.21423 0.118965 0)
(8.19454 0.119642 0)
(8.16282 0.120681 0)
(0.830258 0.191189 0)
(1.3621 0.222165 0)
(1.97612 0.0908039 0)
(2.58591 -0.0305798 0)
(3.11179 -0.124381 0)
(3.56972 -0.207446 0)
(3.98609 -0.284847 0)
(4.37168 -0.356067 0)
(4.73061 -0.421448 0)
(5.06645 -0.482382 0)
(5.38258 -0.540084 0)
(5.68155 -0.595334 0)
(5.9651 -0.648719 0)
(6.23453 -0.700739 0)
(6.49094 -0.751799 0)
(6.73524 -0.802181 0)
(6.96814 -0.852055 0)
(7.19019 -0.901494 0)
(7.40182 -0.950497 0)
(7.60337 -0.998993 0)
(7.79507 -1.04685 0)
(7.97712 -1.09388 0)
(8.14965 -1.13983 0)
(8.31277 -1.18441 0)
(8.46655 -1.22727 0)
(8.61105 -1.26802 0)
(8.74628 -1.30625 0)
(8.87226 -1.34151 0)
(8.989 -1.37336 0)
(9.09649 -1.40132 0)
(9.19473 -1.42496 0)
(9.28373 -1.44385 0)
(9.36351 -1.45759 0)
(9.43412 -1.46584 0)
(9.4956 -1.4683 0)
(9.54804 -1.46478 0)
(9.59157 -1.45513 0)
(9.62633 -1.43932 0)
(9.65254 -1.41739 0)
(9.67045 -1.38949 0)
(9.68038 -1.35585 0)
(9.68269 -1.31682 0)
(9.67782 -1.27279 0)
(9.66624 -1.22426 0)
(9.6485 -1.17175 0)
(9.62517 -1.11587 0)
(9.59686 -1.05721 0)
(9.56419 -0.99641 0)
(9.52781 -0.93409 0)
(9.48832 -0.870862 0)
(9.44635 -0.807309 0)
(9.40246 -0.743979 0)
(9.3572 -0.681374 0)
(9.31105 -0.619946 0)
(9.26446 -0.560096 0)
(9.2178 -0.502167 0)
(9.1714 -0.446448 0)
(9.12555 -0.393177 0)
(9.08047 -0.342538 0)
(9.03632 -0.294669 0)
(8.99325 -0.249665 0)
(8.95134 -0.20758 0)
(8.91065 -0.168433 0)
(8.87123 -0.132214 0)
(8.83306 -0.0988822 0)
(8.79615 -0.0683748 0)
(8.76047 -0.0406081 0)
(8.72597 -0.0154808 0)
(8.69262 0.00712183 0)
(8.66034 0.0273246 0)
(8.62909 0.0452639 0)
(8.59881 0.061083 0)
(8.56945 0.0749259 0)
(8.54097 0.086939 0)
(8.51332 0.0972694 0)
(8.48645 0.106065 0)
(8.46034 0.113471 0)
(8.43493 0.119632 0)
(8.41021 0.124687 0)
(8.38615 0.128772 0)
(8.3627 0.132017 0)
(8.33986 0.134544 0)
(8.3176 0.136472 0)
(8.29589 0.13791 0)
(8.27472 0.138961 0)
(8.25402 0.139717 0)
(8.23396 0.140287 0)
(8.21375 0.140695 0)
(8.19672 0.141178 0)
(8.16976 0.141296 0)
(5.29644 -0.592933 0)
(5.55525 -0.641765 0)
(5.86474 -0.639061 0)
(6.2322 -0.642404 0)
(6.58313 -0.65386 0)
(6.89785 -0.6724 0)
(7.18524 -0.697285 0)
(7.4513 -0.726516 0)
(7.69748 -0.758196 0)
(7.92524 -0.791293 0)
(8.13671 -0.825358 0)
(8.33381 -0.860175 0)
(8.51793 -0.895631 0)
(8.69015 -0.93168 0)
(8.85139 -0.968297 0)
(9.00244 -1.00545 0)
(9.14394 -1.04306 0)
(9.27643 -1.08101 0)
(9.40029 -1.11916 0)
(9.51585 -1.15731 0)
(9.62333 -1.19523 0)
(9.7229 -1.23264 0)
(9.81468 -1.26923 0)
(9.89874 -1.30464 0)
(9.97508 -1.33849 0)
(10.0437 -1.37033 0)
(10.1045 -1.39973 0)
(10.1575 -1.42622 0)
(10.2025 -1.44931 0)
(10.2394 -1.46854 0)
(10.2681 -1.48346 0)
(10.2885 -1.49362 0)
(10.3005 -1.49865 0)
(10.3041 -1.49822 0)
(10.2992 -1.49207 0)
(10.286 -1.48001 0)
(10.2645 -1.46198 0)
(10.2351 -1.43797 0)
(10.1979 -1.40811 0)
(10.1534 -1.3726 0)
(10.1021 -1.33177 0)
(10.0446 -1.28602 0)
(9.98156 -1.23581 0)
(9.91363 -1.18171 0)
(9.8416 -1.12428 0)
(9.76628 -1.06416 0)
(9.68846 -1.00197 0)
(9.60894 -0.938341 0)
(9.52849 -0.873892 0)
(9.44783 -0.809202 0)
(9.36764 -0.744815 0)
(9.28851 -0.681228 0)
(9.21097 -0.618885 0)
(9.13548 -0.558175 0)
(9.06241 -0.499432 0)
(8.99205 -0.442932 0)
(8.92462 -0.3889 0)
(8.86026 -0.337512 0)
(8.79907 -0.288897 0)
(8.74108 -0.243141 0)
(8.68626 -0.200295 0)
(8.63456 -0.160375 0)
(8.58588 -0.123368 0)
(8.54011 -0.089238 0)
(8.49711 -0.0579245 0)
(8.45673 -0.029347 0)
(8.41879 -0.00340804 0)
(8.38312 0.0199999 0)
(8.34955 0.0409916 0)
(8.31794 0.0596939 0)
(8.28812 0.0762379 0)
(8.25995 0.0907584 0)
(8.23329 0.103393 0)
(8.20803 0.114282 0)
(8.18403 0.123566 0)
(8.16121 0.131387 0)
(8.13945 0.137884 0)
(8.11868 0.143194 0)
(8.09882 0.147451 0)
(8.0798 0.150785 0)
(8.06157 0.15332 0)
(8.04406 0.155175 0)
(8.02724 0.156465 0)
(8.01106 0.157295 0)
(7.9955 0.157769 0)
(7.98049 0.157977 0)
(7.96612 0.158034 0)
(7.95189 0.15793 0)
(7.93991 0.158106 0)
(7.92155 0.157205 0)
(10.3624 -0.34528 0)
(10.2356 -0.525666 0)
(10.1524 -0.62954 0)
(10.1359 -0.700213 0)
(10.1565 -0.75408 0)
(10.193 -0.795696 0)
(10.24 -0.829772 0)
(10.2947 -0.860304 0)
(10.3536 -0.889295 0)
(10.4135 -0.917596 0)
(10.473 -0.945737 0)
(10.5311 -0.974124 0)
(10.5873 -1.00302 0)
(10.6409 -1.03256 0)
(10.6915 -1.0628 0)
(10.7389 -1.0937 0)
(10.7829 -1.12518 0)
(10.8232 -1.15712 0)
(10.8596 -1.18932 0)
(10.8918 -1.22155 0)
(10.9195 -1.25354 0)
(10.9424 -1.28498 0)
(10.9602 -1.3155 0)
(10.9725 -1.34472 0)
(10.9789 -1.37219 0)
(10.9791 -1.39746 0)
(10.9726 -1.42005 0)
(10.9591 -1.43947 0)
(10.9381 -1.45526 0)
(10.9094 -1.46693 0)
(10.8726 -1.47405 0)
(10.8275 -1.47623 0)
(10.7741 -1.47314 0)
(10.7121 -1.46452 0)
(10.6419 -1.45019 0)
(10.5634 -1.43008 0)
(10.4772 -1.4042 0)
(10.3836 -1.37269 0)
(10.2833 -1.33578 0)
(10.1769 -1.29379 0)
(10.0654 -1.24713 0)
(9.94955 -1.19631 0)
(9.83041 -1.14186 0)
(9.70897 -1.08438 0)
(9.58624 -1.02449 0)
(9.46322 -0.962805 0)
(9.34089 -0.899946 0)
(9.22014 -0.836503 0)
(9.10181 -0.773031 0)
(8.98663 -0.710044 0)
(8.87525 -0.648003 0)
(8.76821 -0.587315 0)
(8.66592 -0.528332 0)
(8.56872 -0.47135 0)
(8.47683 -0.41661 0)
(8.39039 -0.364305 0)
(8.30943 -0.314581 0)
(8.23394 -0.267542 0)
(8.16383 -0.223253 0)
(8.09894 -0.181748 0)
(8.03909 -0.143034 0)
(7.98405 -0.10709 0)
(7.93357 -0.0738772 0)
(7.88738 -0.043336 0)
(7.84519 -0.0153864 0)
(7.80669 0.0100627 0)
(7.77161 0.0331033 0)
(7.73967 0.0538364 0)
(7.7106 0.0723716 0)
(7.68416 0.0888234 0)
(7.6601 0.103311 0)
(7.63819 0.115957 0)
(7.61822 0.126888 0)
(7.6 0.13623 0)
(7.58335 0.144111 0)
(7.56811 0.150659 0)
(7.55413 0.156001 0)
(7.54129 0.160259 0)
(7.52948 0.163557 0)
(7.51858 0.166011 0)
(7.50852 0.167738 0)
(7.49923 0.168846 0)
(7.49063 0.169442 0)
(7.48268 0.169625 0)
(7.47532 0.169493 0)
(7.46852 0.16913 0)
(7.46227 0.168653 0)
(7.4564 0.168025 0)
(7.45155 0.167809 0)
(7.44484 0.165978 0)
(12.1079 -0.308704 0)
(12.0556 -0.462529 0)
(11.9895 -0.565893 0)
(11.9348 -0.642638 0)
(11.8915 -0.705594 0)
(11.8546 -0.757886 0)
(11.8232 -0.802113 0)
(11.7979 -0.841237 0)
(11.778 -0.877183 0)
(11.762 -0.910946 0)
(11.7489 -0.943206 0)
(11.7378 -0.974545 0)
(11.728 -1.0054 0)
(11.7186 -1.03605 0)
(11.709 -1.06663 0)
(11.6985 -1.09718 0)
(11.6865 -1.12768 0)
(11.6722 -1.15801 0)
(11.655 -1.18802 0)
(11.6342 -1.21747 0)
(11.6092 -1.2461 0)
(11.5791 -1.27358 0)
(11.5434 -1.29954 0)
(11.5014 -1.32358 0)
(11.4525 -1.34527 0)
(11.396 -1.36416 0)
(11.3315 -1.37982 0)
(11.2585 -1.39179 0)
(11.1766 -1.39965 0)
(11.0855 -1.40303 0)
(10.9852 -1.40159 0)
(10.8756 -1.39505 0)
(10.757 -1.38322 0)
(10.6295 -1.36598 0)
(10.4939 -1.34332 0)
(10.3506 -1.31531 0)
(10.2005 -1.28213 0)
(10.0446 -1.24406 0)
(9.88388 -1.20145 0)
(9.71953 -1.15474 0)
(9.55276 -1.10444 0)
(9.3848 -1.05108 0)
(9.21691 -0.995253 0)
(9.0503 -0.937538 0)
(8.88612 -0.878523 0)
(8.72546 -0.818776 0)
(8.56929 -0.758831 0)
(8.41847 -0.699184 0)
(8.27372 -0.640281 0)
(8.13565 -0.582516 0)
(8.00473 -0.526231 0)
(7.8813 -0.471712 0)
(7.76557 -0.419193 0)
(7.65766 -0.368859 0)
(7.55756 -0.320853 0)
(7.46519 -0.275274 0)
(7.38039 -0.232189 0)
(7.30293 -0.191633 0)
(7.23253 -0.153616 0)
(7.16886 -0.118127 0)
(7.11157 -0.0851359 0)
(7.06027 -0.0545974 0)
(7.01459 -0.0264471 0)
(6.97408 -0.000607656 0)
(6.93835 0.0229965 0)
(6.90704 0.0444386 0)
(6.87978 0.0638018 0)
(6.85619 0.0811758 0)
(6.83595 0.0966564 0)
(6.81871 0.110343 0)
(6.80417 0.122338 0)
(6.79204 0.132745 0)
(6.78207 0.141672 0)
(6.774 0.149227 0)
(6.76762 0.155516 0)
(6.76272 0.160647 0)
(6.75913 0.16473 0)
(6.75669 0.167868 0)
(6.75527 0.170168 0)
(6.75473 0.171731 0)
(6.75498 0.172658 0)
(6.75593 0.173046 0)
(6.75749 0.172989 0)
(6.7596 0.172577 0)
(6.76221 0.171899 0)
(6.76528 0.171032 0)
(6.76874 0.170079 0)
(6.77275 0.169006 0)
(6.77639 0.168372 0)
(6.78309 0.165891 0)
(12.1606 -0.331991 0)
(12.2063 -0.448413 0)
(12.2222 -0.53977 0)
(12.2267 -0.613136 0)
(12.2265 -0.675456 0)
(12.2222 -0.729176 0)
(12.2144 -0.775733 0)
(12.2047 -0.816992 0)
(12.1936 -0.854573 0)
(12.181 -0.889528 0)
(12.1664 -0.922557 0)
(12.1494 -0.95419 0)
(12.1295 -0.984798 0)
(12.1062 -1.01459 0)
(12.0787 -1.04367 0)
(12.0464 -1.07203 0)
(12.0087 -1.09959 0)
(11.9649 -1.12625 0)
(11.9142 -1.15181 0)
(11.856 -1.17606 0)
(11.7896 -1.19871 0)
(11.7144 -1.21946 0)
(11.6299 -1.23797 0)
(11.5355 -1.25389 0)
(11.4309 -1.26685 0)
(11.3158 -1.27649 0)
(11.1901 -1.28247 0)
(11.0537 -1.28447 0)
(10.9068 -1.28221 0)
(10.7496 -1.27547 0)
(10.5826 -1.26407 0)
(10.4063 -1.24792 0)
(10.2217 -1.227 0)
(10.0296 -1.20138 0)
(9.83106 -1.1712 0)
(9.62738 -1.1367 0)
(9.41985 -1.09819 0)
(9.20985 -1.05604 0)
(8.99882 -1.01069 0)
(8.7882 -0.962622 0)
(8.5794 -0.912346 0)
(8.37378 -0.860383 0)
(8.17262 -0.807253 0)
(7.97709 -0.753462 0)
(7.78822 -0.699488 0)
(7.60691 -0.645771 0)
(7.43393 -0.592711 0)
(7.26987 -0.540657 0)