/*--------------------------------*- C++ -*----------------------------------*\
| =========                 |                                                 |
| \\      /  F ield         | OpenFOAM: The Open Source CFD Toolbox           |
|  \\    /   O peration     | Version:  2406                                  |
|   \\  /    A nd           | Website:  www.openfoam.com                      |
|    \\/     M anipulation  |                                                 |
\*---------------------------------------------------------------------------*/
FoamFile
{
    version     2.0;
    format      ascii;
    arch        "LSB;label=32;scalar=64";
    class       volScalarField;
    location    "272";
    object      p;
}
// * * * * * * * * * * * * * * * * * * * * * * * * * * * * * * * * * * * * * //

dimensions      [0 2 -2 0 0 0 0];

internalField   nonuniform List<scalar> 
12225
(
-4.01927
-4.85009
-5.05163
-5.08357
-5.15487
-5.22087
-5.26143
-5.28511
-5.29533
-5.28982
-5.26551
-5.2174
-5.13886
-5.00942
-4.81768
-4.40036
-3.89074
-0.649419
-4.12164
-4.77492
-4.98312
-5.03999
-5.11862
-5.18724
-5.23001
-5.2553
-5.26655
-5.26173
-5.23784
-5.19001
-5.11206
-4.98515
-4.8032
-4.45339
-4.08896
-3.42329
-4.28717
-4.7667
-4.97415
-5.04237
-5.11854
-5.18595
-5.22938
-5.25535
-5.26736
-5.26368
-5.24159
-5.1968
-5.12415
-5.00924
-4.8512
-4.59234
-4.403
-4.26778
-4.42279
-4.77553
-4.97886
-5.05415
-5.12579
-5.19097
-5.23467
-5.26119
-5.27403
-5.27196
-5.25259
-5.2125
-5.14802
-5.04999
-4.92249
-4.74469
-4.64514
-4.60312
-4.5351
-4.79407
-4.98478
-5.0655
-5.13345
-5.19624
-5.24023
-5.26756
-5.28169
-5.28191
-5.26635
-5.23262
-5.17876
-5.10057
-5.00575
-4.89399
-4.85486
-4.90122
-4.6336
-4.8223
-4.99383
-5.07795
-5.143
-5.20315
-5.24734
-5.27582
-5.29173
-5.29498
-5.28432
-5.25848
-5.21721
-5.16037
-5.09784
-5.04004
-5.05
-5.15819
-4.72149
-4.85805
-5.00745
-5.09246
-5.15512
-5.2125
-5.25675
-5.28665
-5.30482
-5.31179
-5.307
-5.29025
-5.26281
-5.22748
-5.19499
-5.18004
-5.22605
-5.36158
-4.80024
-4.8988
-5.02577
-5.1091
-5.16971
-5.2244
-5.26857
-5.30012
-5.32104
-5.33234
-5.33418
-5.32732
-5.31417
-5.2993
-5.29324
-5.31076
-5.38074
-5.52399
-4.87123
-4.94261
-5.04853
-5.12799
-5.18669
-5.23896
-5.28297
-5.31633
-5.3404
-5.35652
-5.36552
-5.36887
-5.36973
-5.37343
-5.38949
-5.43058
-5.51532
-5.65682
-4.9358
-4.98799
-5.07528
-5.14927
-5.20603
-5.25626
-5.30009
-5.33538
-5.36291
-5.3842
-5.40058
-5.41401
-5.42798
-5.44783
-5.48156
-5.53902
-5.63181
-5.76702
-4.99513
-5.03384
-5.10534
-5.17298
-5.22767
-5.27628
-5.32003
-5.3573
-5.38848
-5.41509
-5.43878
-5.46178
-5.48753
-5.52084
-5.56809
-5.63633
-5.73243
-5.85941
-5.04563
-5.0757
-5.13531
-5.1969
-5.24954
-5.297
-5.34083
-5.37994
-5.41451
-5.44596
-5.47606
-5.50707
-5.54213
-5.58537
-5.64168
-5.71599
-5.8123
-5.93141
-5.09252
-5.11654
-5.16645
-5.22225
-5.27285
-5.31944
-5.36349
-5.40442
-5.44233
-5.47843
-5.51447
-5.55259
-5.59555
-5.64667
-5.70954
-5.78737
-5.88226
-5.99373
-5.14259
-5.16181
-5.20313
-5.25303
-5.30134
-5.34721
-5.39172
-5.43473
-5.47626
-5.51731
-5.55943
-5.6045
-5.65472
-5.71251
-5.78023
-5.85965
-5.95152
-6.05471
-5.19521
-5.21076
-5.24512
-5.28954
-5.33549
-5.38088
-5.42619
-5.47148
-5.51678
-5.56279
-5.61073
-5.66206
-5.71834
-5.78112
-5.85168
-5.93076
-6.01829
-6.11299
-5.2492
-5.26216
-5.2914
-5.33137
-5.37528
-5.42052
-5.46698
-5.5147
-5.56367
-5.61429
-5.66732
-5.72373
-5.78444
-5.85025
-5.92166
-5.99875
-6.08109
-6.16751
-5.30243
-5.31379
-5.33984
-5.3769
-5.41957
-5.46517
-5.51313
-5.56334
-5.61566
-5.67016
-5.72717
-5.78714
-5.85046
-5.91739
-5.98793
-6.06184
-6.13857
-6.21721
-5.35095
-5.36166
-5.38649
-5.42263
-5.46541
-5.51216
-5.56207
-5.6148
-5.67002
-5.72751
-5.78724
-5.84925
-5.91355
-5.98006
-6.04854
-6.11864
-6.18987
-6.26155
-5.38715
-5.39837
-5.42433
-5.46219
-5.50711
-5.55631
-5.60887
-5.66434
-5.72218
-5.78192
-5.84329
-5.9061
-5.97016
-6.03523
-6.10101
-6.16716
-6.23331
-6.29901
-5.394
-5.4072
-5.43731
-5.48009
-5.52938
-5.58224
-5.63805
-5.6964
-5.75662
-5.81811
-5.88056
-5.94373
-6.00739
-6.07128
-6.13512
-6.19861
-6.26148
-6.32342
-5.38048
-5.39664
-5.43301
-5.48253
-5.53699
-5.59373
-5.65284
-5.71398
-5.77631
-5.83926
-5.90259
-5.9661
-6.02957
-6.09275
-6.15541
-6.21731
-6.27823
-6.33796
-5.35109
-5.37229
-5.41833
-5.47675
-5.53695
-5.59773
-5.66033
-5.72429
-5.78861
-5.85285
-5.91698
-5.98084
-6.04425
-6.10698
-6.16887
-6.22972
-6.28937
-6.34766
-5.30807
-5.33772
-5.39795
-5.46685
-5.53251
-5.59727
-5.66351
-5.73019
-5.79624
-5.86162
-5.92648
-5.99071
-6.05415
-6.11663
-6.17802
-6.23818
-6.29699
-6.35431
-5.25234
-5.29623
-5.37622
-5.45586
-5.5259
-5.59461
-5.66454
-5.7336
-5.80103
-5.86734
-5.93284
-5.9974
-6.06089
-6.12322
-6.18428
-6.24397
-6.3022
-6.35878
-5.18373
-5.25137
-5.357
-5.44559
-5.51848
-5.59124
-5.66467
-5.73556
-5.80398
-5.87104
-5.93706
-6.00189
-6.06543
-6.12767
-6.18853
-6.24791
-6.30574
-6.36173
-5.1015
-5.20766
-5.34307
-5.43675
-5.51131
-5.58822
-5.66455
-5.73661
-5.80571
-5.87338
-5.93981
-6.00483
-6.06843
-6.13064
-6.19139
-6.25057
-6.30817
-6.3637
-5.00412
-5.17145
-5.33524
-5.42862
-5.50501
-5.58617
-5.66452
-5.73719
-5.80684
-5.87503
-5.94176
-6.00693
-6.07059
-6.13279
-6.19347
-6.25257
-6.31008
-6.36542
-4.88471
-5.14857
-5.33165
-5.41805
-5.49766
-5.58363
-5.66346
-5.7365
-5.80667
-5.87532
-5.94234
-6.00767
-6.07143
-6.13369
-6.1944
-6.25354
-6.3112
-6.36717
-4.72684
-5.13983
-5.33717
-5.41023
-5.49206
-5.58215
-5.66283
-5.7358
-5.80606
-5.87482
-5.94182
-6.00709
-6.07078
-6.13294
-6.19352
-6.25252
-6.31005
-6.36728
-4.58657
-5.18343
-5.40283
-5.45355
-5.52449
-5.61053
-5.68824
-5.75886
-5.82743
-5.89484
-5.96068
-6.02493
-6.08771
-6.14907
-6.2089
-6.2671
-6.32309
-6.37599
-7.85512
-7.88326
-7.89109
-7.8923
-7.89418
-7.89718
-7.90074
-7.90473
-7.9092
-7.91419
-7.91972
-7.9258
-7.93245
-7.93969
-7.94752
-7.95594
-7.96497
-7.97461
-7.98485
-7.9957
-8.00715
-8.0192
-8.03184
-8.04507
-8.05887
-8.07325
-8.08818
-8.10365
-8.11965
-8.13617
-8.15319
-8.1707
-8.18867
-8.2071
-8.22596
-8.24523
-8.26491
-8.28496
-8.30538
-8.32613
-8.34721
-8.36859
-8.39025
-8.41218
-8.43435
-8.45674
-8.47934
-8.50212
-8.52507
-8.54817
-8.57139
-8.59473
-8.61815
-8.64165
-8.66519
-8.68877
-8.71237
-8.73596
-8.75954
-8.78307
-8.80654
-8.82994
-8.85325
-8.87644
-8.89951
-8.92243
-8.94518
-8.96776
-8.99013
-9.01229
-9.03421
-9.05588
-9.07728
-9.09839
-9.1192
-9.13969
-9.15984
-9.17963
-9.19905
-9.21808
-9.2367
-9.25489
-9.27264
-9.28992
-9.30673
-9.32304
-9.33883
-9.35408
-9.36879
-9.38292
-9.39647
-9.40941
-9.42173
-9.43341
-9.44442
-9.45476
-9.4644
-9.47332
-9.4815
-9.48893
-9.49558
-9.50145
-9.5065
-9.51072
-9.51409
-9.51659
-9.51821
-9.51892
-9.51871
-9.51756
-9.51546
-9.51239
-9.50834
-9.50329
-9.49723
-9.49015
-9.48204
-9.47289
-9.46269
-9.45144
-9.43915
-9.42581
-9.41143
-9.39602
-9.37958
-9.36214
-9.34371
-9.32434
-9.30405
-9.28289
-9.2609
-9.23815
-9.21469
-9.19061
-9.16599
-9.14092
-9.11551
-9.08986
-9.0641
-9.03836
-9.01279
-8.98755
-8.96279
-8.93869
-8.9154
-8.89308
-8.87191
-8.85203
-8.83359
-8.81672
-8.80151
-8.78802
-8.77629
-8.76626
-8.75786
-8.75089
-8.7451
-8.74009
-8.73538
-8.73032
-8.7241
-8.71574
-8.7041
-8.68783
-8.66535
-8.63477
-8.59386
-8.5403
-8.47175
-8.38522
-8.27639
-8.14105
-7.97743
-7.78103
-7.5359
-7.23545
-6.91364
-6.52812
-5.75683
-4.62979
-7.81442
-7.8441
-7.85008
-7.85017
-7.85144
-7.85395
-7.85708
-7.86071
-7.8649
-7.86967
-7.87504
-7.88102
-7.88761
-7.89483
-7.90268
-7.91116
-7.92028
-7.93005
-7.94045
-7.95148
-7.96315
-7.97545
-7.98837
-8.00189
-8.01602
-8.03074
-8.04603
-8.06189
-8.07829
-8.09523
-8.11268
-8.13064
-8.14907
-8.16796
-8.1873
-8.20706
-8.22722
-8.24777
-8.26868
-8.28993
-8.31151
-8.33339
-8.35555
-8.37798
-8.40065
-8.42354
-8.44664
-8.46991
-8.49335
-8.51694
-8.54064
-8.56446
-8.58835
-8.61232
-8.63633
-8.66037
-8.68442
-8.70847
-8.73249
-8.75646
-8.78037
-8.8042
-8.82793
-8.85155
-8.87503
-8.89836
-8.92152
-8.94449
-8.96726
-8.98981
-9.01212
-9.03417
-9.05594
-9.07743
-9.09861
-9.11946
-9.13997
-9.16011
-9.17988
-9.19926
-9.21822
-9.23675
-9.25483
-9.27244
-9.28957
-9.3062
-9.32231
-9.33788
-9.3529
-9.36734
-9.38119
-9.39443
-9.40705
-9.41902
-9.43033
-9.44095
-9.45087
-9.46007
-9.46853
-9.47623
-9.48316
-9.48928
-9.4946
-9.49908
-9.5027
-9.50546
-9.50732
-9.50828
-9.50831
-9.50739
-9.50552
-9.50268
-9.49885
-9.49401
-9.48816
-9.48128
-9.47336
-9.4644
-9.45438
-9.4433
-9.43116
-9.41797
-9.40373
-9.38843
-9.3721
-9.35475
-9.3364
-9.31708
-9.29682
-9.27567
-9.25367
-9.23088
-9.20736
-9.18318
-9.15843
-9.13321
-9.1076
-9.08172
-9.05569
-9.02965
-9.00374
-8.97812
-8.95295
-8.9284
-8.90462
-8.88178
-8.86006
-8.83962
-8.82059
-8.80312
-8.78731
-8.77323
-8.76092
-8.75036
-8.74146
-8.73406
-8.72791
-8.72264
-8.71779
-8.71272
-8.70665
-8.69862
-8.68749
-8.67195
-8.65044
-8.62112
-8.5818
-8.53017
-8.46391
-8.38021
-8.2751
-8.1443
-7.98489
-7.79219
-7.5544
-7.2673
-6.9551
-6.58242
-5.93977
-5.10078
-7.82455
-7.85684
-7.86394
-7.86443
-7.866
-7.86873
-7.87201
-7.87575
-7.88002
-7.88484
-7.89025
-7.89625
-7.90285
-7.91008
-7.91792
-7.9264
-7.93551
-7.94525
-7.95562
-7.96662
-7.97825
-7.99049
-8.00334
-8.0168
-8.03084
-8.04547
-8.06067
-8.07642
-8.0927
-8.10951
-8.12683
-8.14464
-8.16292
-8.18166
-8.20083
-8.22042
-8.24041
-8.26078
-8.28151
-8.30258
-8.32397
-8.34566
-8.36762
-8.38985
-8.41232
-8.43502
-8.45791
-8.48099
-8.50422
-8.52761
-8.55111
-8.57473
-8.59842
-8.62219
-8.64601
-8.66985
-8.69371
-8.71756
-8.74139
-8.76518
-8.7889
-8.81255
-8.8361
-8.85953
-8.88284
-8.90599
-8.92898
-8.95179
-8.97439
-8.99677
-9.01892
-9.04081
-9.06243
-9.08376
-9.10479
-9.12549
-9.14585
-9.16585
-9.18548
-9.20471
-9.22354
-9.24193
-9.25988
-9.27736
-9.29437
-9.31087
-9.32686
-9.34231
-9.35721
-9.37153
-9.38527
-9.3984
-9.41091
-9.42277
-9.43398
-9.4445
-9.45431
-9.46342
-9.47178
-9.47939
-9.48622
-9.49225
-9.49748
-9.50187
-9.50541
-9.50807
-9.50985
-9.51072
-9.51067
-9.50968
-9.50773
-9.50481
-9.5009
-9.49598
-9.49006
-9.4831
-9.47511
-9.46606
-9.45597
-9.44481
-9.4326
-9.41933
-9.40501
-9.38963
-9.37322
-9.35578
-9.33734
-9.31793
-9.29758
-9.27634
-9.25424
-9.23134
-9.20772
-9.18344
-9.15858
-9.13324
-9.10752
-9.08152
-9.05537
-9.02921
-9.00319
-8.97746
-8.95218
-8.92753
-8.90366
-8.88074
-8.85896
-8.83846
-8.81941
-8.80194
-8.78616
-8.77215
-8.75994
-8.74952
-8.74081
-8.73366
-8.7278
-8.72289
-8.71845
-8.71385
-8.70831
-8.70088
-8.69042
-8.67558
-8.65484
-8.62634
-8.58794
-8.53731
-8.47205
-8.38935
-8.28549
-8.15648
-7.99902
-7.80797
-7.57386
-7.29448
-6.98108
-6.5946
-6.02808
-5.40193
-7.82961
-7.86249
-7.86937
-7.86966
-7.87119
-7.87396
-7.8773
-7.88113
-7.8855
-7.89044
-7.89597
-7.9021
-7.90885
-7.91622
-7.92421
-7.93283
-7.94208
-7.95196
-7.96247
-7.9736
-7.98535
-7.99771
-8.01068
-8.02424
-8.03838
-8.0531
-8.06837
-8.08419
-8.10054
-8.1174
-8.13476
-8.1526
-8.1709
-8.18965
-8.20883
-8.22842
-8.2484
-8.26875
-8.28945
-8.31049
-8.33184
-8.35348
-8.3754
-8.39758
-8.41999
-8.44262
-8.46545
-8.48846
-8.51163
-8.53493
-8.55837
-8.5819
-8.60552
-8.6292
-8.65294
-8.6767
-8.70048
-8.72424
-8.74799
-8.77169
-8.79533
-8.81889
-8.84235
-8.86571
-8.88893
-8.912
-8.9349
-8.95763
-8.98015
-9.00245
-9.02451
-9.04632
-9.06786
-9.08912
-9.11006
-9.13069
-9.15097
-9.1709
-9.19046
-9.20962
-9.22837
-9.24669
-9.26457
-9.28198
-9.29892
-9.31536
-9.33128
-9.34666
-9.36149
-9.37576
-9.38943
-9.4025
-9.41495
-9.42675
-9.43789
-9.44835
-9.45811
-9.46716
-9.47546
-9.48301
-9.48979
-9.49577
-9.50094
-9.50527
-9.50876
-9.51137
-9.51309
-9.51391
-9.51381
-9.51276
-9.51075
-9.50777
-9.50381
-9.49884
-9.49285
-9.48583
-9.47778
-9.46867
-9.45851
-9.44728
-9.435
-9.42166
-9.40725
-9.3918
-9.3753
-9.35777
-9.33924
-9.31973
-9.29927
-9.27792
-9.2557
-9.23269
-9.20893
-9.18452
-9.15952
-9.13404
-9.10817
-9.08203
-9.05574
-9.02943
-9.00327
-8.97741
-8.95202
-8.92725
-8.90328
-8.88029
-8.85845
-8.83793
-8.81888
-8.80146
-8.78578
-8.77191
-8.75991
-8.74976
-8.7414
-8.73465
-8.72929
-8.72495
-8.72116
-8.71729
-8.71258
-8.70605
-8.69656
-8.68279
-8.66316
-8.63586
-8.59875
-8.54953
-8.48573
-8.40451
-8.30232
-8.17548
-8.02055
-7.83221
-7.60271
-7.33123
-7.02018
-6.63135
-6.12044
-5.6044
-7.83773
-7.87178
-7.87883
-7.87913
-7.8807
-7.88353
-7.88695
-7.89085
-7.8953
-7.90033
-7.90595
-7.91219
-7.91904
-7.92651
-7.93461
-7.94334
-7.95269
-7.96267
-7.97328
-7.9845
-7.99634
-8.00878
-8.02181
-8.03543
-8.04962
-8.06437
-8.07967
-8.0955
-8.11186
-8.12871
-8.14605
-8.16387
-8.18213
-8.20084
-8.21996
-8.23949
-8.25939
-8.27966
-8.30028
-8.32122
-8.34248
-8.36402
-8.38583
-8.40789
-8.43019
-8.4527
-8.4754
-8.49828
-8.52132
-8.5445
-8.5678
-8.5912
-8.61469
-8.63824
-8.66184
-8.68547
-8.70911
-8.73274
-8.75635
-8.77992
-8.80343
-8.82686
-8.8502
-8.87342
-8.89652
-8.91946
-8.94224
-8.96484
-8.98724
-9.00942
-9.03137
-9.05307
-9.07449
-9.09563
-9.11647
-9.13698
-9.15716
-9.17698
-9.19643
-9.21549
-9.23414
-9.25237
-9.27015
-9.28747
-9.30431
-9.32066
-9.33649
-9.35179
-9.36653
-9.38071
-9.3943
-9.40729
-9.41965
-9.43138
-9.44244
-9.45283
-9.46251
-9.47148
-9.47972
-9.4872
-9.4939
-9.49981
-9.50491
-9.50918
-9.5126
-9.51514
-9.5168
-9.51755
-9.51738
-9.51626
-9.51419
-9.51114
-9.50711
-9.50207
-9.49601
-9.48892
-9.48079
-9.4716
-9.46136
-9.45006
-9.43769
-9.42425
-9.40975
-9.3942
-9.37759
-9.35995
-9.3413
-9.32167
-9.30108
-9.27959
-9.25723
-9.23406
-9.21014
-9.18556
-9.16039
-9.13473
-9.10867
-9.08234
-9.05586
-9.02937
-9.00303
-8.97699
-8.95142
-8.92649
-8.90239
-8.87928
-8.85735
-8.83677
-8.81772
-8.80033
-8.78474
-8.77103
-8.75926
-8.74941
-8.74144
-8.73518
-8.73039
-8.72673
-8.72372
-8.72074
-8.71702
-8.7116
-8.70332
-8.69085
-8.67262
-8.64681
-8.61132
-8.56385
-8.50191
-8.42265
-8.32266
-8.19844
-8.04651
-7.86173
-7.63771
-7.3737
-7.06682
-6.68532
-6.22009
-5.76064
-7.84972
-7.88474
-7.89191
-7.89219
-7.89381
-7.89671
-7.9002
-7.90419
-7.90874
-7.91388
-7.91961
-7.92596
-7.93293
-7.94052
-7.94873
-7.95757
-7.96703
-7.97711
-7.98781
-7.99911
-8.01102
-8.02351
-8.03659
-8.05025
-8.06446
-8.07922
-8.09451
-8.11032
-8.12664
-8.14345
-8.16074
-8.17848
-8.19667
-8.21528
-8.2343
-8.25372
-8.2735
-8.29365
-8.31413
-8.33493
-8.35603
-8.37742
-8.39908
-8.42098
-8.44311
-8.46545
-8.48798
-8.51069
-8.53355
-8.55655
-8.57968
-8.6029
-8.62621
-8.64958
-8.673
-8.69645
-8.71992
-8.74338
-8.76681
-8.79021
-8.81354
-8.83681
-8.85997
-8.88303
-8.90596
-8.92875
-8.95137
-8.97381
-8.99605
-9.01808
-9.03988
-9.06142
-9.0827
-9.1037
-9.1244
-9.14477
-9.16481
-9.1845
-9.20382
-9.22274
-9.24127
-9.25937
-9.27703
-9.29423
-9.31095
-9.32718
-9.3429
-9.35808
-9.37272
-9.38678
-9.40027
-9.41315
-9.42542
-9.43704
-9.44801
-9.4583
-9.46789
-9.47676
-9.48491
-9.49229
-9.49891
-9.50473
-9.50975
-9.51393
-9.51726
-9.51972
-9.52129
-9.52196
-9.5217
-9.5205
-9.51835
-9.51521
-9.51109
-9.50597
-9.49982
-9.49264
-9.48442
-9.47514
-9.4648
-9.4534
-9.44092
-9.42738
-9.41276
-9.39708
-9.38035
-9.36258
-9.34379
-9.32401
-9.30327
-9.28161
-9.25908
-9.23573
-9.21163
-9.18685
-9.16147
-9.13559
-9.10932
-9.08277
-9.05607
-9.02936
-9.0028
-8.97656
-8.9508
-8.92569
-8.90142
-8.87818
-8.85614
-8.83551
-8.81644
-8.7991
-8.78361
-8.77008
-8.75856
-8.74907
-8.74153
-8.73582
-8.73168
-8.72879
-8.72666
-8.72468
-8.72207
-8.71787
-8.71094
-8.69992
-8.68324
-8.65908
-8.62538
-8.57982
-8.51991
-8.44281
-8.34524
-8.22378
-8.07498
-7.89398
-7.6755
-7.41812
-7.11617
-6.74504
-6.31292
-5.88324
-7.86545
-7.90131
-7.90856
-7.90882
-7.91047
-7.91344
-7.917
-7.92107
-7.9257
-7.93092
-7.93675
-7.9432
-7.95026
-7.95794
-7.96624
-7.97516
-7.98469
-7.99484
-8.00559
-8.01693
-8.02886
-8.04137
-8.05445
-8.06809
-8.08227
-8.09698
-8.11222
-8.12796
-8.14419
-8.16091
-8.17808
-8.1957
-8.21375
-8.23222
-8.25109
-8.27034
-8.28996
-8.30993
-8.33022
-8.35084
-8.37174
-8.39293
-8.41438
-8.43608
-8.458
-8.48013
-8.50245
-8.52494
-8.54759
-8.57038
-8.59329
-8.61629
-8.63939
-8.66255
-8.68576
-8.709
-8.73225
-8.7555
-8.77874
-8.80193
-8.82506
-8.84813
-8.8711
-8.89397
-8.9167
-8.9393
-8.96174
-8.984
-9.00606
-9.02791
-9.04953
-9.07091
-9.09202
-9.11285
-9.13338
-9.1536
-9.17348
-9.19302
-9.21218
-9.23096
-9.24934
-9.26729
-9.28481
-9.30187
-9.31846
-9.33456
-9.35014
-9.3652
-9.37971
-9.39366
-9.40702
-9.41979
-9.43194
-9.44345
-9.4543
-9.46448
-9.47396
-9.48273
-9.49077
-9.49806
-9.50457
-9.5103
-9.51521
-9.51929
-9.52253
-9.52489
-9.52637
-9.52694
-9.52659
-9.5253
-9.52305
-9.51982
-9.5156
-9.51038
-9.50413
-9.49685
-9.48853
-9.47915
-9.4687
-9.45718
-9.4446
-9.43093
-9.41619
-9.40038
-9.38351
-9.36559
-9.34665
-9.32671
-9.3058
-9.28396
-9.26124
-9.23769
-9.21338
-9.18839
-9.16279
-9.13668
-9.11017
-9.08338
-9.05645
-9.02951
-9.00272
-8.97626
-8.95028
-8.92498
-8.90054
-8.87715
-8.85502
-8.83432
-8.81524
-8.79794
-8.78257
-8.76923
-8.75799
-8.74887
-8.74181
-8.73668
-8.73324
-8.73115
-8.72995
-8.72902
-8.72757
-8.72466
-8.71912
-8.7096
-8.69453
-8.67209
-8.6402
-8.59659
-8.53874
-8.46384
-8.36868
-8.24995
-8.10417
-7.92683
-7.71334
-7.46156
-7.16489
-6.80448
-6.39343
-5.9777
-7.8851
-7.92174
-7.92904
-7.92928
-7.93095
-7.93396
-7.93756
-7.94167
-7.94635
-7.95163
-7.95751
-7.964
-7.9711
-7.97882
-7.98715
-7.99609
-8.00562
-8.01576
-8.02649
-8.0378
-8.04968
-8.06213
-8.07513
-8.08868
-8.10275
-8.11734
-8.13244
-8.14804
-8.16411
-8.18065
-8.19764
-8.21507
-8.23292
-8.25118
-8.26984
-8.28886
-8.30825
-8.32798
-8.34804
-8.36841
-8.38907
-8.41001
-8.43121
-8.45265
-8.47432
-8.4962
-8.51826
-8.5405
-8.5629
-8.58544
-8.60809
-8.63085
-8.6537
-8.67662
-8.69958
-8.72259
-8.7456
-8.76862
-8.79162
-8.81459
-8.8375
-8.86034
-8.8831
-8.90575
-8.92827
-8.95066
-8.97289
-8.99495
-9.01682
-9.03847
-9.0599
-9.08109
-9.10202
-9.12267
-9.14302
-9.16306
-9.18278
-9.20214
-9.22114
-9.23976
-9.25798
-9.27578
-9.29314
-9.31005
-9.32649
-9.34245
-9.35789
-9.37281
-9.38719
-9.401
-9.41424
-9.42687
-9.4389
-9.45029
-9.46102
-9.47108
-9.48045
-9.4891
-9.49703
-9.50421
-9.51061
-9.51623
-9.52104
-9.52502
-9.52815
-9.53041
-9.53178
-9.53226
-9.5318
-9.53041
-9.52806
-9.52473
-9.52041
-9.51509
-9.50874
-9.50135
-9.49292
-9.48343
-9.47287
-9.46124
-9.44853
-9.43474
-9.41987
-9.40392
-9.38691
-9.36884
-9.34974
-9.32963
-9.30855
-9.28653
-9.26362
-9.23987
-9.21535
-9.19013
-9.16431
-9.13796
-9.11122
-9.08419
-9.05702
-9.02984
-9.00283
-8.97614
-8.94995
-8.92446
-8.89984
-8.87632
-8.85407
-8.83331
-8.81422
-8.79698
-8.78172
-8.76858
-8.75763
-8.74888
-8.74229
-8.73774
-8.73499
-8.73371
-8.73343
-8.73353
-8.73323
-8.73158
-8.72741
-8.71936
-8.70585
-8.68506
-8.65494
-8.6132
-8.55731
-8.48448
-8.3916
-8.27541
-8.13239
-7.95838
-7.74911
-7.50174
-7.21001
-6.85945
-6.46053
-6.04938
-7.90883
-7.94622
-7.95354
-7.95373
-7.95539
-7.95839
-7.96199
-7.96609
-7.97076
-7.97601
-7.98186
-7.98831
-7.99537
-8.00302
-8.01128
-8.02013
-8.02957
-8.03959
-8.05019
-8.06136
-8.07308
-8.08536
-8.09817
-8.11152
-8.12538
-8.13975
-8.15462
-8.16997
-8.18579
-8.20208
-8.2188
-8.23596
-8.25353
-8.27151
-8.28988
-8.30861
-8.32771
-8.34714
-8.36691
-8.38698
-8.40735
-8.42799
-8.44889
-8.47004
-8.49142
-8.513
-8.53478
-8.55674
-8.57885
-8.6011
-8.62348
-8.64597
-8.66854
-8.69119
-8.7139
-8.73664
-8.7594
-8.78217
-8.80492
-8.82764
-8.85031
-8.87291
-8.89544
-8.91786
-8.94016
-8.96233
-8.98434
-9.00619
-9.02785
-9.0493
-9.07053
-9.09152
-9.11225
-9.13271
-9.15288
-9.17274
-9.19227
-9.21146
-9.23029
-9.24874
-9.2668
-9.28443
-9.30164
-9.3184
-9.33469
-9.35049
-9.36579
-9.38057
-9.39481
-9.40848
-9.42158
-9.43409
-9.44599
-9.45725
-9.46786
-9.4778
-9.48705
-9.49559
-9.5034
-9.51046
-9.51676
-9.52227
-9.52696
-9.53084
-9.53386
-9.53602
-9.53729
-9.53766
-9.53711
-9.53561
-9.53316
-9.52973
-9.52531
-9.51988
-9.51343
-9.50594
-9.49739
-9.48779
-9.47712
-9.46538
-9.45255
-9.43863
-9.42363
-9.40755
-9.39039
-9.37218
-9.35293
-9.33266
-9.31141
-9.28921
-9.26611
-9.24216
-9.21744
-9.19201
-9.16596
-9.1394
-9.11243
-9.08517
-9.05777
-9.03037
-9.00314
-8.97624
-8.94985
-8.92417
-8.8994
-8.87574
-8.8534
-8.83259
-8.81349
-8.7963
-8.78116
-8.76821
-8.75753
-8.74914
-8.743
-8.73899
-8.7369
-8.73637
-8.73695
-8.73801
-8.73878
-8.73829
-8.73538
-8.72868
-8.7166
-8.69733
-8.6688
-8.62874
-8.5746
-8.50362
-8.41276
-8.29877
-8.15815
-7.98693
-7.78104
-7.537
-7.2492
-6.90687
-6.51407
-6.10267
-7.93677
-7.97494
-7.98226
-7.98235
-7.98395
-7.98688
-7.99039
-7.99438
-7.99891
-8.00402
-8.00971
-8.01599
-8.02285
-8.0303
-8.03833
-8.04695
-8.05613
-8.06589
-8.07621
-8.08708
-8.0985
-8.11046
-8.12295
-8.13597
-8.14949
-8.16352
-8.17804
-8.19304
-8.20851
-8.22443
-8.2408
-8.2576
-8.27481
-8.29243
-8.31043
-8.32882
-8.34756
-8.36664
-8.38606
-8.40579
-8.42581
-8.44612
-8.46669
-8.48751
-8.50856
-8.52982
-8.55128
-8.57293
-8.59473
-8.61669
-8.63877
-8.66097
-8.68326
-8.70562
-8.72805
-8.75052
-8.77302
-8.79552
-8.81802
-8.84049
-8.86291
-8.88528
-8.90756
-8.92975
-8.95183
-8.97377
-8.99557
-9.0172
-9.03865
-9.05989
-9.08092
-9.10172
-9.12226
-9.14253
-9.16251
-9.18219
-9.20154
-9.22056
-9.23922
-9.2575
-9.27539
-9.29287
-9.30992
-9.32653
-9.34267
-9.35832
-9.37348
-9.38812
-9.40222
-9.41576
-9.42873
-9.44111
-9.45288
-9.46402
-9.47451
-9.48433
-9.49346
-9.50189
-9.50959
-9.51654
-9.52273
-9.52813
-9.53272
-9.53649
-9.53941
-9.54147
-9.54264
-9.54291
-9.54226
-9.54067
-9.53812
-9.53459
-9.53007
-9.52454
-9.51799
-9.51039
-9.50175
-9.49205
-9.48127
-9.46941
-9.45647
-9.44243
-9.42731
-9.4111
-9.39382
-9.37547
-9.35607
-9.33566
-9.31425
-9.29188
-9.26861
-9.24448
-9.21957
-9.19395
-9.1677
-9.14093
-9.11376
-9.0863
-9.05869
-9.03109
-9.00366
-8.97657
-8.95001
-8.92417
-8.89926
-8.87548
-8.85306
-8.8322
-8.81311
-8.79597
-8.78094
-8.76817
-8.75773
-8.74966
-8.74393
-8.74042
-8.7389
-8.73904
-8.74038
-8.74228
-8.74398
-8.7445
-8.74267
-8.73713
-8.72627
-8.70827
-8.68109
-8.64242
-8.58974
-8.5203
-8.43109
-8.31887
-8.18016
-8.01111
-7.80773
-7.56606
-7.28093
-6.94479
-6.55425
-6.14062
-7.96912
-8.0082
-8.0155
-8.01541
-8.01684
-8.01958
-8.02285
-8.02657
-8.03081
-8.03559
-8.04093
-8.04683
-8.05329
-8.06032
-8.06791
-8.07608
-8.0848
-8.09409
-8.10393
-8.11432
-8.12525
-8.13672
-8.14872
-8.16125
-8.17429
-8.18783
-8.20187
-8.2164
-8.2314
-8.24686
-8.26277
-8.27912
-8.29589
-8.31308
-8.33066
-8.34863
-8.36696
-8.38564
-8.40466
-8.42401
-8.44365
-8.46359
-8.4838
-8.50427
-8.52497
-8.5459
-8.56703
-8.58835
-8.60984
-8.63148
-8.65326
-8.67516
-8.69716
-8.71925
-8.7414
-8.7636
-8.78583
-8.80808
-8.83032
-8.85254
-8.87473
-8.89685
-8.91891
-8.94087
-8.96273
-8.98446
-9.00604
-9.02747
-9.04871
-9.06976
-9.0906
-9.1112
-9.13156
-9.15165
-9.17146
-9.19096
-9.21015
-9.229
-9.2475
-9.26563
-9.28336
-9.30069
-9.31759
-9.33406
-9.35006
-9.36558
-9.3806
-9.3951
-9.40907
-9.42249
-9.43534
-9.4476
-9.45925
-9.47028
-9.48065
-9.49036
-9.49939
-9.50771
-9.51531
-9.52216
-9.52824
-9.53355
-9.53804
-9.54171
-9.54454
-9.54651
-9.54759
-9.54777
-9.54702
-9.54534
-9.5427
-9.53908
-9.53447
-9.52885
-9.52221
-9.51453
-9.50579
-9.49599
-9.48512
-9.47316
-9.46012
-9.44598
-9.43075
-9.41443
-9.39703
-9.37856
-9.35903
-9.33849
-9.31694
-9.29443
-9.27101
-9.24673
-9.22166
-9.19586
-9.16945
-9.1425
-9.11516
-9.08752
-9.05975
-9.03198
-9.00439
-8.97714
-8.95043
-8.92446
-8.89944
-8.87557
-8.85309
-8.8322
-8.81312
-8.79603
-8.78111
-8.76849
-8.75826
-8.75047
-8.74508
-8.74197
-8.74093
-8.74162
-8.74357
-8.74616
-8.7486
-8.74992
-8.74895
-8.7443
-8.73439
-8.71737
-8.69119
-8.65357
-8.60199
-8.53368
-8.44567
-8.33471
-8.19733
-8.02977
-7.82802
-7.58788
-7.30417
-6.97202
-6.58151
-6.16536
-8.00616
-8.04643
-8.05366
-8.05327
-8.05438
-8.05673
-8.05955
-8.06276
-8.06643
-8.0706
-8.07529
-8.08052
-8.08629
-8.09261
-8.09948
-8.10691
-8.11491
-8.12347
-8.13258
-8.14226
-8.15249
-8.16326
-8.17459
-8.18645
-8.19884
-8.21175
-8.22517
-8.2391
-8.25352
-8.26842
-8.28378
-8.2996
-8.31586
-8.33255
-8.34965
-8.36715
-8.38503
-8.40327
-8.42187
-8.4408
-8.46005
-8.4796
-8.49943
-8.51954
-8.53989
-8.56047
-8.58127
-8.60227
-8.62344
-8.64478
-8.66627
-8.68788
-8.7096
-8.73141
-8.7533
-8.77524
-8.79723
-8.81923
-8.84123
-8.86323
-8.88518
-8.90709
-8.92893
-8.95069
-8.97234
-8.99387
-9.01527
-9.0365
-9.05756
-9.07844
-9.0991
-9.11953
-9.13972
-9.15965
-9.1793
-9.19865
-9.21769
-9.23639
-9.25475
-9.27273
-9.29033
-9.30753
-9.3243
-9.34063
-9.35651
-9.37191
-9.38681
-9.4012
-9.41506
-9.42837
-9.44111
-9.45326
-9.46481
-9.47573
-9.48601
-9.49563
-9.50456
-9.51279
-9.52029
-9.52706
-9.53305
-9.53827
-9.54268
-9.54627
-9.54901
-9.5509
-9.5519
-9.552
-9.55118
-9.54942
-9.5467
-9.54301
-9.53832
-9.53262
-9.5259
-9.51814
-9.50932
-9.49945
-9.48849
-9.47645
-9.46332
-9.44909
-9.43377
-9.41736
-9.39986
-9.38129
-9.36167
-9.34101
-9.31936
-9.29673
-9.27319
-9.24879
-9.22358
-9.19766
-9.17111
-9.14403
-9.11655
-9.08879
-9.06089
-9.03299
-9.00528
-8.97792
-8.9511
-8.92504
-8.89993
-8.87601
-8.85349
-8.83259
-8.81352
-8.79648
-8.78165
-8.76915
-8.7591
-8.75152
-8.74639
-8.74359
-8.74291
-8.74399
-8.74639
-8.74946
-8.75242
-8.75428
-8.75389
-8.74983
-8.74052
-8.72412
-8.69857
-8.66159
-8.61066
-8.54302
-8.45569
-8.34543
-8.20877
-8.04197
-7.84099
-7.6016
-7.3184
-6.98815
-6.59668
-6.17914
-8.04842
-8.09035
-8.09747
-8.09655
-8.09706
-8.09872
-8.10074
-8.10305
-8.10576
-8.10891
-8.11254
-8.11668
-8.12135
-8.12657
-8.13234
-8.13869
-8.14562
-8.15314
-8.16124
-8.16993
-8.17921
-8.18907
-8.19951
-8.21052
-8.22209
-8.23423
-8.2469
-8.26012
-8.27385
-8.2881
-8.30284
-8.31806
-8.33375
-8.3499
-8.36648
-8.38348
-8.40088
-8.41867
-8.43683
-8.45534
-8.47419
-8.49335
-8.51281
-8.53256
-8.55257
-8.57282
-8.5933
-8.614
-8.63488
-8.65593
-8.67714
-8.69849
-8.71996
-8.74152
-8.76317
-8.78488
-8.80664
-8.82843
-8.85023
-8.87201
-8.89378
-8.91549
-8.93715
-8.95872
-8.9802
-9.00156
-9.02279
-9.04387
-9.06477
-9.08549
-9.10601
-9.1263
-9.14635
-9.16614
-9.18566
-9.20488
-9.22379
-9.24237
-9.26061
-9.27848
-9.29596
-9.31305
-9.32971
-9.34594
-9.36172
-9.37702
-9.39182
-9.40612
-9.41988
-9.4331
-9.44575
-9.45782
-9.46929
-9.48013
-9.49033
-9.49987
-9.50872
-9.51688
-9.52431
-9.531
-9.53692
-9.54207
-9.54641
-9.54993
-9.55261
-9.55443
-9.55537
-9.5554
-9.55452
-9.5527
-9.54992
-9.54616
-9.54141
-9.53565
-9.52887
-9.52105
-9.51218
-9.50223
-9.49122
-9.47911
-9.46591
-9.45162
-9.43623
-9.41975
-9.40218
-9.38354
-9.36384
-9.3431
-9.32137
-9.29866
-9.27503
-9.25054
-9.22525
-9.19923
-9.17259
-9.14543
-9.11786
-9.09001
-9.06203
-9.03405
-9.00626
-8.97883
-8.95195
-8.92584
-8.90069
-8.87674
-8.85421
-8.83331
-8.81427
-8.79728
-8.78252
-8.77012
-8.76018
-8.75275
-8.74779
-8.74518
-8.7447
-8.74602
-8.74866
-8.75198
-8.7552
-8.75733
-8.75718
-8.75337
-8.74429
-8.72812
-8.70279
-8.66602
-8.61527
-8.54781
-8.46063
-8.35051
-8.21397
-8.04728
-7.84634
-7.60693
-7.32344
-6.99336
-6.60028
-6.18226
-8.09678
-8.14115
-8.14805
-8.14623
-8.1457
-8.14617
-8.14683
-8.14766
-8.14879
-8.15032
-8.15229
-8.15477
-8.1578
-8.1614
-8.1656
-8.17043
-8.17589
-8.182
-8.18876
-8.19617
-8.20424
-8.21295
-8.22231
-8.2323
-8.24291
-8.25413
-8.26595
-8.27835
-8.29133
-8.30486
-8.31892
-8.33351
-8.3486
-8.36418
-8.38023
-8.39672
-8.41365
-8.43099
-8.44872
-8.46683
-8.48529
-8.50409
-8.52321
-8.54263
-8.56233
-8.58229
-8.60248
-8.62291
-8.64353
-8.66434
-8.68531
-8.70644
-8.72769
-8.74904
-8.77049
-8.79202
-8.81359
-8.8352
-8.85683
-8.87845
-8.90006
-8.92162
-8.94313
-8.96456
-8.9859
-9.00713
-9.02823
-9.04919
-9.06997
-9.09058
-9.11098
-9.13116
-9.1511
-9.17079
-9.19021
-9.20934
-9.22815
-9.24664
-9.26479
-9.28257
-9.29997
-9.31698
-9.33356
-9.34972
-9.36541
-9.38064
-9.39537
-9.4096
-9.4233
-9.43645
-9.44904
-9.46105
-9.47245
-9.48324
-9.49338
-9.50286
-9.51166
-9.51976
-9.52714
-9.53378
-9.53965
-9.54475
-9.54904
-9.55251
-9.55515
-9.55692
-9.55781
-9.5578
-9.55687
-9.55501
-9.55218
-9.54838
-9.54359
-9.53779
-9.53097
-9.5231
-9.51419
-9.5042
-9.49314
-9.48099
-9.46775
-9.45341
-9.43798
-9.42145
-9.40384
-9.38515
-9.3654
-9.34463
-9.32284
-9.30009
-9.27641
-9.25187
-9.22653
-9.20047
-9.17378
-9.14658
-9.11897
-9.09109
-9.06307
-9.03506
-9.00724
-8.97979
-8.9529
-8.92677
-8.90162
-8.87767
-8.85515
-8.83428
-8.81527
-8.79832
-8.78361
-8.77127
-8.7614
-8.75403
-8.74914
-8.7466
-8.74619
-8.74756
-8.75023
-8.75357
-8.75679
-8.75888
-8.75867
-8.75476
-8.74554
-8.72917
-8.70361
-8.66654
-8.61545
-8.54758
-8.45995
-8.34932
-8.21221
-8.04486
-7.84318
-7.60294
-7.31841
-6.9875
-6.59253
-6.17407
-8.1529
-8.20083
-8.20733
-8.20395
-8.20161
-8.20005
-8.19845
-8.19687
-8.19552
-8.19453
-8.19401
-8.19405
-8.19471
-8.19604
-8.19808
-8.20087
-8.2044
-8.20871
-8.21378
-8.21962
-8.22622
-8.23357
-8.24166
-8.25048
-8.26
-8.27022
-8.28111
-8.29265
-8.30483
-8.31761
-8.33099
-8.34495
-8.35945
-8.37448
-8.39001
-8.40603
-8.42252
-8.43944
-8.45679
-8.47454
-8.49267
-8.51116
-8.52998
-8.54912
-8.56856
-8.58828
-8.60825
-8.62845
-8.64887
-8.66949
-8.69028
-8.71123
-8.73232
-8.75352
-8.77483
-8.79621
-8.81765
-8.83914
-8.86065
-8.88216
-8.90365
-8.92511
-8.94653
-8.96786
-8.98911
-9.01026
-9.03127
-9.05215
-9.07286
-9.09339
-9.11372
-9.13383
-9.15371
-9.17334
-9.1927
-9.21177
-9.23053
-9.24897
-9.26707
-9.2848
-9.30215
-9.31911
-9.33565
-9.35176
-9.36742
-9.3826
-9.3973
-9.41149
-9.42515
-9.43827
-9.45082
-9.4628
-9.47417
-9.48492
-9.49503
-9.50448
-9.51325
-9.52132
-9.52867
-9.53528
-9.54113
-9.54619
-9.55046
-9.55391
-9.55652
-9.55826
-9.55913
-9.5591
-9.55815
-9.55626
-9.55341
-9.54959
-9.54477
-9.53895
-9.5321
-9.52422
-9.51528
-9.50527
-9.49419
-9.48202
-9.46876
-9.4544
-9.43895
-9.4224
-9.40477
-9.38606
-9.3663
-9.34551
-9.32371
-9.30094
-9.27725
-9.2527
-9.22735
-9.20129
-9.1746
-9.1474
-9.1198
-9.09192
-9.06391
-9.03592
-9.00812
-8.98069
-8.95382
-8.92772
-8.90261
-8.8787
-8.85622
-8.83538
-8.81641
-8.7995
-8.78481
-8.77249
-8.76262
-8.75524
-8.75032
-8.74771
-8.7472
-8.74843
-8.75092
-8.75402
-8.75694
-8.75867
-8.75802
-8.7536
-8.74379
-8.72676
-8.70044
-8.66254
-8.61053
-8.54166
-8.45294
-8.34113
-8.20275
-8.03405
-7.8309
-7.58911
-7.30291
-6.9705
-6.57354
-6.15447
-8.22169
-8.27495
-8.28066
-8.27442
-8.26878
-8.2636
-8.25812
-8.25255
-8.24719
-8.24228
-8.23799
-8.23443
-8.23172
-8.2299
-8.22902
-8.22911
-8.23018
-8.23221
-8.23521
-8.23917
-8.24405
-8.24983
-8.2565
-8.26403
-8.27238
-8.28153
-8.29145
-8.30211
-8.31349
-8.32555
-8.33827
-8.35162
-8.36557
-8.38009