/*--------------------------------*- C++ -*----------------------------------*\
| =========                 |                                                 |
| \\      /  F ield         | OpenFOAM: The Open Source CFD Toolbox           |
|  \\    /   O peration     | Version:  2406                                  |
|   \\  /    A nd           | Website:  www.openfoam.com                      |
|    \\/     M anipulation  |                                                 |
\*---------------------------------------------------------------------------*/
FoamFile
{
    version     2.0;
    format      ascii;
    arch        "LSB;label=32;scalar=64";
    class       surfaceScalarField;
    location    "272";
    object      phi;
}
// * * * * * * * * * * * * * * * * * * * * * * * * * * * * * * * * * * * * * //

dimensions      [0 3 -1 0 0 0 0];

oriented        oriented;

internalField   nonuniform List<scalar> 
24170
(
3.13985e-06
4.85517e-08
3.103e-06
3.68532e-08
3.07878e-06
2.42227e-08
3.05883e-06
1.99511e-08
3.04123e-06
1.75936e-08
3.02555e-06
1.56802e-08
3.01128e-06
1.42711e-08
2.99802e-06
1.3266e-08
2.98546e-06
1.25601e-08
2.97332e-06
1.2135e-08
2.9613e-06
1.20243e-08
2.94897e-06
1.23234e-08
2.93574e-06
1.32343e-08
2.92034e-06
1.53974e-08
2.90042e-06
1.99212e-08
2.86593e-06
3.44873e-08
2.78335e-06
8.25808e-08
1.48959e-07
2.63439e-06
3.41157e-06
5.42317e-08
3.38984e-06
5.85841e-08
3.36701e-06
4.70551e-08
3.3465e-06
4.04597e-08
3.32838e-06
3.5709e-08
3.31213e-06
3.19358e-08
3.29724e-06
2.91546e-08
3.28338e-06
2.71241e-08
3.27027e-06
2.56693e-08
3.25765e-06
2.47573e-08
3.24524e-06
2.44328e-08
3.2327e-06
2.48633e-08
3.21962e-06
2.63139e-08
3.20515e-06
2.98742e-08
3.18876e-06
3.63079e-08
3.16784e-06
5.54103e-08
3.15769e-06
9.27313e-08
1.78784e-07
3.12786e-06
3.6678e-06
4.89507e-08
3.66052e-06
6.58622e-08
3.64706e-06
6.05136e-08
3.63179e-06
5.57274e-08
3.61661e-06
5.08964e-08
3.60213e-06
4.64141e-08
3.5884e-06
4.28862e-08
3.57529e-06
4.02317e-08
3.56265e-06
3.83106e-08
3.55028e-06
3.71214e-08
3.53797e-06
3.6748e-08
3.5254e-06
3.74319e-08
3.51218e-06
3.95272e-08
3.49774e-06
4.43228e-08
3.48139e-06
5.26545e-08
3.46419e-06
7.26049e-08
3.45462e-06
1.02306e-07
1.71234e-07
3.46217e-06
3.9334e-06
4.09432e-08
3.93464e-06
6.46202e-08
3.92972e-06
6.54295e-08
3.92134e-06
6.41057e-08
3.91114e-06
6.11032e-08
3.90021e-06
5.73418e-08
3.88909e-06
5.4006e-08
3.87796e-06
5.13649e-08
3.86683e-06
4.94329e-08
3.85566e-06
4.82988e-08
3.84428e-06
4.81187e-08
3.83251e-06
4.92042e-08
3.82005e-06
5.19878e-08
3.80664e-06
5.77346e-08
3.79199e-06
6.73026e-08
3.77833e-06
8.62616e-08
3.76864e-06
1.12e-07
1.6047e-07
3.7794e-06
4.21474e-06
3.33311e-08
4.21977e-06
5.95845e-08
4.22037e-06
6.48299e-08
4.21784e-06
6.66402e-08
4.21286e-06
6.6081e-08
4.20626e-06
6.3939e-08
4.19868e-06
6.15946e-08
4.19043e-06
5.96061e-08
4.1817e-06
5.81623e-08
4.17254e-06
5.74632e-08
4.16291e-06
5.77506e-08
4.15272e-06
5.93938e-08
4.14184e-06
6.28694e-08
4.13029e-06
6.92776e-08
4.1182e-06
7.93916e-08
4.10784e-06
9.66219e-08
4.10099e-06
1.18859e-07
1.52053e-07
4.1094e-06
4.51543e-06
2.69888e-08
4.52159e-06
5.34217e-08
4.52494e-06
6.14865e-08
4.52613e-06
6.54475e-08
4.52522e-06
6.69885e-08
4.52254e-06
6.66224e-08
4.51851e-06
6.5619e-08
4.51345e-06
6.467e-08
4.50753e-06
6.40764e-08
4.50088e-06
6.41155e-08
4.49354e-06
6.50936e-08
4.48552e-06
6.74089e-08
4.47686e-06
7.15357e-08
4.46779e-06
7.83444e-08
4.45875e-06
8.84331e-08
4.45177e-06
1.03602e-07
4.44845e-06
1.22176e-07
1.45173e-07
4.45533e-06
4.83775e-06
2.19589e-08
4.84385e-06
4.73206e-08
4.84822e-06
5.71167e-08
4.85127e-06
6.23968e-08
4.85286e-06
6.53997e-08
4.85297e-06
6.65118e-08
4.8518e-06
6.6786e-08
4.84954e-06
6.69369e-08
4.8463e-06
6.73139e-08
4.84219e-06
6.82196e-08
4.83731e-06
6.99818e-08
4.83173e-06
7.29868e-08
4.8256e-06
7.76597e-08
4.81932e-06
8.46249e-08
4.8135e-06
9.4259e-08
4.80981e-06
1.07291e-07
4.80963e-06
1.22356e-07
1.38549e-07
4.81625e-06
5.1835e-06
1.80423e-08
5.18911e-06
4.1709e-08
5.19369e-06
5.25394e-08
5.19744e-06
5.86412e-08
5.20027e-06
6.25761e-08
5.20201e-06
6.47695e-08
5.20272e-06
6.60697e-08
5.20249e-06
6.71662e-08
5.20138e-06
6.84264e-08
5.19946e-06
7.01453e-08
5.1968e-06
7.26326e-08
5.19356e-06
7.62272e-08
5.18996e-06
8.12683e-08
5.18643e-06
8.81509e-08
5.18365e-06
9.70346e-08
5.18293e-06
1.08017e-07
5.18532e-06
1.19962e-07
1.31475e-07
5.1924e-06
5.55437e-06
1.50053e-08
5.55938e-06
3.6699e-08
5.56386e-06
4.8068e-08
5.56777e-06
5.47232e-08
5.57109e-06
5.92579e-08
5.57364e-06
6.22173e-08
5.57542e-06
6.42904e-08
5.57647e-06
6.61193e-08
5.57682e-06
6.80798e-08
5.57651e-06
7.0448e-08
5.57565e-06
7.34943e-08
5.57439e-06
7.74896e-08
5.57299e-06
8.26719e-08
5.57189e-06
8.92437e-08
5.57174e-06
9.71892e-08
5.57347e-06
1.06281e-07
5.57786e-06
1.15574e-07
1.23781e-07
5.58555e-06
5.95214e-06
1.264e-08
5.95655e-06
3.22854e-08
5.96082e-06
4.38009e-08
5.96471e-06
5.08374e-08
5.96819e-06
5.57784e-08
5.97111e-06
5.92912e-08
5.97345e-06
6.19489e-08
5.97524e-06
6.43286e-08
5.97652e-06
6.68046e-08
5.97734e-06
6.96324e-08
5.97779e-06
7.3036e-08
5.97807e-06
7.72144e-08
5.97843e-06
8.23086e-08
5.9793e-06
8.83763e-08
5.9812e-06
9.52835e-08
5.98481e-06
1.02672e-07
5.99061e-06
1.09773e-07
1.15591e-07
5.9988e-06
6.37867e-06
1.07795e-08
6.38254e-06
2.84207e-08
6.38658e-06
3.97585e-08
6.39039e-06
4.7026e-08
6.39392e-06
5.22477e-08
6.39705e-06
5.61647e-08
6.39973e-06
5.92703e-08
6.40199e-06
6.20654e-08
6.40389e-06
6.49066e-08
6.40549e-06
6.80268e-08
6.40692e-06
7.16037e-08
6.40837e-06
7.57702e-08
6.41009e-06
8.05875e-08
6.41245e-06
8.60175e-08
6.41587e-06
9.1864e-08
6.42079e-06
9.77509e-08
6.42749e-06
1.03073e-07
1.07136e-07
6.43594e-06
5.74212e-06
9.48992e-09
5.74501e-06
2.5539e-08
5.74826e-06
3.65082e-08
5.75143e-06
4.38505e-08
5.75444e-06
4.92351e-08
5.75721e-06
5.34006e-08
5.75968e-06
5.67953e-08
5.76189e-06
5.98576e-08
5.76388e-06
6.29156e-08
5.76573e-06
6.61789e-08
5.76754e-06
6.97887e-08
5.76948e-06
7.38308e-08
5.77175e-06
7.83158e-08
5.77462e-06
8.31567e-08
5.77834e-06
8.81398e-08
5.78317e-06
9.2919e-08
5.78923e-06
9.70153e-08
9.99473e-08
5.79642e-06
6.99939e-06
8.2524e-09
7.00234e-06
2.25894e-08
7.00587e-06
3.29835e-08
7.00945e-06
4.02693e-08
7.01294e-06
4.57383e-08
7.01626e-06
5.00882e-08
7.01933e-06
5.37202e-08
7.02219e-06
5.70003e-08
7.02489e-06
6.02146e-08
7.02753e-06
6.35426e-08
7.03023e-06
6.70882e-08
7.03316e-06
7.08942e-08
7.03655e-06
7.49316e-08
7.04062e-06
7.9088e-08
7.0456e-06
8.31581e-08
7.05166e-06
8.68546e-08
7.05885e-06
8.98254e-08
9.17718e-08
7.06703e-06
8.53203e-06
7.06654e-09
8.53502e-06
1.96065e-08
8.53881e-06
2.91921e-08
8.54283e-06
3.62418e-08
8.5469e-06
4.16763e-08
8.55088e-06
4.61074e-08
8.55471e-06
4.98858e-08
8.55841e-06
5.33013e-08
8.56204e-06
5.65848e-08
8.5657e-06
5.98794e-08
8.56954e-06
6.32537e-08
8.57372e-06
6.67161e-08
8.57843e-06
7.02145e-08
8.58389e-06
7.3634e-08
8.59024e-06
7.68013e-08
8.5976e-06
7.95022e-08
8.60592e-06
8.15016e-08
8.26409e-08
8.61505e-06
1.04004e-05
5.9173e-09
1.04034e-05
1.65876e-08
1.04075e-05
2.51154e-08
1.0412e-05
3.16957e-08
1.04168e-05
3.69261e-08
1.04216e-05
4.12897e-08
1.04264e-05
4.50775e-08
1.04312e-05
4.85053e-08
1.0436e-05
5.17416e-08
1.0441e-05
5.48886e-08
1.04463e-05
5.79848e-08
1.0452e-05
6.10169e-08
1.04583e-05
6.39266e-08
1.04653e-05
6.66158e-08
1.04731e-05
6.89563e-08
1.04818e-05
7.0807e-08
1.04913e-05
7.20281e-08
7.25579e-08
1.05014e-05
1.26779e-05
4.76912e-09
1.26811e-05
1.34664e-08
1.26855e-05
2.06765e-08
1.26907e-05
2.65039e-08
1.26963e-05
3.13012e-08
1.27022e-05
3.54004e-08
1.27083e-05
3.90167e-08
1.27145e-05
4.22964e-08
1.27209e-05
4.53466e-08
1.27275e-05
4.82284e-08
1.27346e-05
5.09567e-08
1.27421e-05
5.3509e-08
1.27502e-05
5.58343e-08
1.27589e-05
5.78615e-08
1.27684e-05
5.95086e-08
1.27785e-05
6.06962e-08
1.27891e-05
6.13535e-08
6.14778e-08
1.28002e-05
1.54544e-05
3.55878e-09
1.54578e-05
1.00901e-08
1.54628e-05
1.56881e-08
1.54688e-05
2.0436e-08
1.54756e-05
2.45167e-08
1.54829e-05
2.81118e-08
1.54906e-05
3.13457e-08
1.54986e-05
3.42985e-08
1.55069e-05
3.70214e-08
1.55156e-05
3.95381e-08
1.55247e-05
4.18455e-08
1.55343e-05
4.39195e-08
1.55444e-05
4.57225e-08
1.5555e-05
4.72105e-08
1.55662e-05
4.83396e-08
1.55778e-05
4.90742e-08
1.55898e-05
4.93874e-08
4.93056e-08
1.5602e-05
1.8839e-05
2.18028e-09
1.88429e-05
6.17605e-09
1.88488e-05
9.7784e-09
1.88562e-05
1.30753e-08
1.88646e-05
1.61225e-08
1.88738e-05
1.89544e-08
1.88835e-05
2.15947e-08
1.88937e-05
2.40564e-08
1.89044e-05
2.63405e-08
1.89155e-05
2.8436e-08
1.8927e-05
3.03236e-08
1.8939e-05
3.19786e-08
1.89513e-05
3.33749e-08
1.89641e-05
3.44879e-08
1.89771e-05
3.52986e-08
1.89904e-05
3.57967e-08
1.90038e-05
3.59781e-08
3.58782e-08
1.90172e-05
2.29651e-05
4.24371e-10
2.29701e-05
1.1845e-09
2.29776e-05
2.23237e-09
2.2987e-05
3.661e-09
2.29978e-05
5.36604e-09
2.30095e-05
7.20581e-09
2.30221e-05
9.09103e-09
2.30351e-05
1.09647e-08
2.30487e-05
1.27737e-08
2.30627e-05
1.44691e-08
2.3077e-05
1.60115e-08
2.30916e-05
1.73714e-08
2.31064e-05
1.85258e-08
2.31215e-05
1.9459e-08
2.31366e-05
2.01627e-08
2.31518e-05
2.06369e-08
2.31669e-05
2.08859e-08
2.09411e-08
2.31818e-05
1.68122e-05
-1.10427e-09
1.68165e-05
-3.06475e-09
1.68227e-05
-4.0301e-09
1.68304e-05
-3.95624e-09
1.68389e-05
-3.17861e-09
1.68481e-05
-2.00727e-09
1.68578e-05
-6.03947e-10
1.68679e-05
9.25538e-10
1.68781e-05
2.48385e-09
1.68886e-05
3.9925e-09
1.68992e-05
5.399e-09
1.69099e-05
6.66797e-09
1.69207e-05
7.77554e-09
1.69314e-05
8.7066e-09
1.69421e-05
9.45499e-09
1.69528e-05
1.00219e-08
1.69632e-05
1.04128e-08
1.06534e-08
1.69735e-05
1.46362e-05
-2.7542e-09
1.46407e-05
-7.55876e-09
1.46471e-05
-1.03753e-08
1.46545e-05
-1.13767e-08
1.46626e-05
-1.12955e-08
1.46712e-05
-1.0611e-08
1.46801e-05
-9.52527e-09
1.46892e-05
-8.19254e-09
1.46985e-05
-6.75864e-09
1.47078e-05
-5.32522e-09
1.47171e-05
-3.95307e-09
1.47265e-05
-2.68127e-09
1.47358e-05
-1.53646e-09
1.47451e-05
-5.34245e-10
1.47542e-05
3.18849e-10
1.47632e-05
1.02375e-09
1.4772e-05
1.58477e-09
2.02241e-09
1.47806e-05
1.27421e-05
-4.67558e-09
1.2747e-05
-1.25473e-08
1.27536e-05
-1.69465e-08
1.27609e-05
-1.86708e-08
1.27687e-05
-1.90528e-08
1.27767e-05
-1.86727e-08
1.27849e-05
-1.7737e-08
1.27932e-05
-1.64645e-08
1.28015e-05
-1.50493e-08
1.28098e-05
-1.36041e-08
1.2818e-05
-1.21911e-08
1.28262e-05
-1.08519e-08
1.28343e-05
-9.61526e-09
1.28422e-05
-8.49726e-09
1.28501e-05
-7.5048e-09
1.28577e-05
-6.63813e-09
1.28652e-05
-5.89377e-09
-5.25766e-09
1.28725e-05
1.10933e-05
-7.07871e-09
1.1099e-05
-1.82652e-08
1.11059e-05
-2.3786e-08
1.11131e-05
-2.58443e-08
1.11205e-05
-2.64814e-08
1.1128e-05
-2.62168e-08
1.11356e-05
-2.52584e-08
1.1143e-05
-2.3917e-08
1.11504e-05
-2.24204e-08
1.11577e-05
-2.08767e-08
1.11648e-05
-1.93459e-08
1.11718e-05
-1.78725e-08
1.11787e-05
-1.64865e-08
1.11854e-05
-1.52044e-08
1.11919e-05
-1.40335e-08
1.11983e-05
-1.29759e-08
1.12044e-05
-1.20285e-08
-1.11866e-08
1.12103e-05
9.65841e-06
-1.0272e-08
9.66504e-06
-2.48996e-08
9.67209e-06
-3.08314e-08
9.6791e-06
-3.28553e-08
9.68615e-06
-3.35344e-08
9.69307e-06
-3.31356e-08
9.69975e-06
-3.19348e-08
9.70618e-06
-3.03531e-08
9.71239e-06
-2.86254e-08
9.71836e-06
-2.6847e-08
9.72409e-06
-2.50797e-08
9.72959e-06
-2.33722e-08
9.73486e-06
-2.1755e-08
9.7399e-06
-2.0244e-08
9.74471e-06
-1.88466e-08
9.7493e-06
-1.75657e-08
9.75367e-06
-1.63967e-08
-1.53449e-08
9.75783e-06
8.40975e-06
-1.46739e-08
8.41737e-06
-3.25109e-08
8.42441e-06
-3.78806e-08
8.43103e-06
-3.94747e-08
8.43731e-06
-3.98071e-08
8.443e-06
-3.88319e-08
8.4481e-06
-3.70283e-08
8.45266e-06
-3.49217e-08
8.45677e-06
-3.27297e-08
8.46046e-06
-3.05358e-08
8.46378e-06
-2.84037e-08
8.46679e-06
-2.63793e-08
8.46952e-06
-2.44856e-08
8.47201e-06
-2.27316e-08
8.47428e-06
-2.11183e-08
8.47636e-06
-1.96436e-08
8.47826e-06
-1.82974e-08
-1.70875e-08
8.48e-06
7.3234e-06
-2.07906e-08
7.3317e-06
-4.08066e-08
7.33809e-06
-4.4275e-08
7.34327e-06
-4.46572e-08
7.34726e-06
-4.37963e-08
7.34999e-06
-4.15588e-08
7.35169e-06
-3.87252e-08
7.35261e-06
-3.58488e-08
7.35296e-06
-3.30795e-08
7.35289e-06
-3.04609e-08
7.35251e-06
-2.80276e-08
7.35193e-06
-2.57956e-08
7.3512e-06
-2.37623e-08
7.35039e-06
-2.19172e-08
7.34952e-06
-2.02475e-08
7.34861e-06
-1.87383e-08
7.34769e-06
-1.73721e-08
-1.61428e-08
7.34674e-06
6.37834e-06
-2.90634e-08
6.38583e-06
-4.82985e-08
6.3893e-06
-4.7746e-08
6.39005e-06
-4.54079e-08
6.3886e-06
-4.2346e-08
6.38558e-06
-3.85361e-08
6.38165e-06
-3.47978e-08
6.37727e-06
-3.14675e-08
6.37271e-06
-2.85164e-08
6.36813e-06
-2.58886e-08
6.36366e-06
-2.35539e-08
6.35935e-06
-2.14823e-08
6.35523e-06
-1.96421e-08
6.35131e-06
-1.80047e-08
6.34761e-06
-1.65465e-08
6.34412e-06
-1.5243e-08
6.34082e-06
-1.40737e-08
-1.29988e-08
6.33768e-06
5.55521e-06
-3.88135e-08
5.55711e-06
-5.01915e-08
5.55232e-06
-4.29574e-08
5.54405e-06
-3.71404e-08
5.53421e-06
-3.25068e-08
5.52405e-06
-2.83762e-08
5.51421e-06
-2.49531e-08
5.50491e-06
-2.21749e-08
5.49624e-06
-1.9847e-08
5.48821e-06
-1.78491e-08
5.48077e-06
-1.612e-08
5.4739e-06
-1.46155e-08
5.46756e-06
-1.32992e-08
5.4617e-06
-1.21423e-08
5.45628e-06
-1.1124e-08
5.45126e-06
-1.02257e-08
5.44662e-06
-9.43054e-09
-8.72241e-09
5.44234e-06
4.83287e-06
-4.40788e-08
4.81909e-06
-3.6412e-08
4.80005e-06
-2.39168e-08
4.78148e-06
-1.85723e-08
4.7648e-06
-1.58236e-08
4.75008e-06
-1.36549e-08
4.73704e-06
-1.19172e-08
4.72541e-06
-1.05443e-08
4.71497e-06
-9.40818e-09
4.70556e-06
-8.43707e-09
4.69704e-06
-7.60054e-09
4.6893e-06
-6.87715e-09
4.68225e-06
-6.24804e-09
4.67581e-06
-5.6984e-09
4.6699e-06
-5.21925e-09
4.66449e-06
-4.8133e-09
4.65956e-06
-4.50205e-09
-4.7623e-09
4.6556e-06
4.1586e-06
4.12219e-06
4.09827e-06
4.0797e-06
4.06387e-06
4.05022e-06
4.0383e-06
4.02776e-06
4.01835e-06
4.00991e-06
4.00231e-06
3.99543e-06
3.98919e-06
3.98349e-06
3.97827e-06
3.97345e-06
3.96895e-06
3.96419e-06
-2.08431e-08
2.08429e-08
-4.35764e-08
2.2733e-08
-6.68136e-08
2.32372e-08
-9.05453e-08
2.37314e-08
-1.14768e-07
2.42226e-08
-1.39448e-07
2.468e-08
-1.64547e-07
2.50983e-08
-1.9003e-07
2.54826e-08
-2.15867e-07
2.58371e-08
-2.42032e-07
2.61648e-08
-2.68501e-07
2.64686e-08
-2.95252e-07
2.67508e-08
-3.22265e-07
2.70132e-08
-3.49523e-07
2.72572e-08
-3.77007e-07
2.74838e-08
-4.04701e-07
2.76934e-08
-4.32587e-07
2.78864e-08
-4.6065e-07
2.80628e-08
-4.88873e-07
2.82225e-08
-5.17239e-07
2.83654e-08
-5.4573e-07
2.84915e-08
-5.74331e-07
2.86006e-08
-6.03024e-07
2.86928e-08
-6.31793e-07
2.87681e-08
-6.6062e-07
2.88269e-08
-6.8949e-07
2.88694e-08
-7.18386e-07
2.88958e-08
-7.47294e-07
2.89068e-08
-7.76197e-07
2.89028e-08
-8.05082e-07
2.88843e-08
-8.33934e-07
2.8852e-08
-8.62741e-07
2.88065e-08
-8.9149e-07
2.87484e-08
-9.20169e-07
2.86784e-08
-9.48766e-07
2.85971e-08
-9.77272e-07
2.85053e-08
-1.00568e-06
2.84035e-08
-1.03397e-06
2.82923e-08
-1.06214e-06
2.81725e-08
-1.09019e-06
2.80445e-08
-1.1181e-06
2.7909e-08
-1.14586e-06
2.77664e-08
-1.17348e-06
2.76174e-08
-1.20094e-06
2.74624e-08
-1.22825e-06
2.73018e-08
-1.25538e-06
2.7136e-08
-1.28235e-06
2.69656e-08
-1.30914e-06
2.67908e-08
-1.33575e-06
2.6612e-08
-1.36218e-06
2.64295e-08
-1.38843e-06
2.62438e-08
-1.41448e-06
2.60548e-08
-1.44035e-06
2.58631e-08
-1.46602e-06
2.56688e-08
-1.49149e-06
2.54722e-08
-1.51676e-06
2.52733e-08
-1.54184e-06
2.50725e-08
-1.56671e-06
2.48697e-08
-1.59137e-06
2.46654e-08
-1.61583e-06
2.44594e-08
-1.64009e-06
2.42521e-08
-1.66413e-06
2.40434e-08
-1.68797e-06
2.38335e-08
-1.71159e-06
2.36223e-08
-1.735e-06
2.34102e-08
-1.7582e-06
2.31969e-08
-1.78118e-06
2.29828e-08
-1.80395e-06
2.27676e-08
-1.8265e-06
2.25517e-08
-1.84884e-06
2.23348e-08
-1.87096e-06
2.21173e-08
-1.89286e-06
2.18988e-08
-1.91454e-06
2.16798e-08
-1.936e-06
2.14598e-08
-1.95724e-06
2.12393e-08
-1.97826e-06
2.10179e-08
-1.99905e-06
2.07959e-08
-2.01963e-06
2.05731e-08
-2.03998e-06
2.03498e-08
-2.06011e-06
2.01256e-08
-2.08001e-06
1.99009e-08
-2.09969e-06
1.96752e-08
-2.11913e-06
1.94491e-08
-2.13836e-06
1.9222e-08
-2.15735e-06
1.89944e-08
-2.17612e-06
1.87657e-08
-2.19466e-06
1.85366e-08
-2.21297e-06
1.83063e-08
-2.23104e-06
1.80754e-08
-2.24889e-06
1.78436e-08
-2.2665e-06
1.76108e-08
-2.28387e-06
1.7377e-08
-2.30102e-06
1.71424e-08
-2.31793e-06
1.69069e-08
-2.3346e-06
1.66705e-08
-2.35104e-06
1.64331e-08
-2.36723e-06
1.61949e-08
-2.38319e-06
1.59557e-08
-2.39891e-06
1.57157e-08
-2.41439e-06
1.54748e-08
-2.42963e-06
1.52332e-08
-2.44462e-06
1.49907e-08
-2.45937e-06
1.47476e-08
-2.47388e-06
1.45036e-08
-2.48814e-06
1.42594e-08
-2.50216e-06
1.40145e-08
-2.51594e-06
1.37698e-08
-2.52946e-06
1.35247e-08
-2.54275e-06
1.32801e-08
-2.55578e-06
1.30355e-08
-2.56858e-06
1.27919e-08
-2.58113e-06
1.25489e-08
-2.59344e-06
1.23076e-08
-2.60551e-06
1.20676e-08
-2.61734e-06
1.18303e-08
-2.62894e-06
1.15953e-08
-2.6403e-06
1.13642e-08
-2.65144e-06
1.1137e-08
-2.66236e-06
1.09153e-08
-2.67306e-06
1.06993e-08
-2.68355e-06
1.04906e-08
-2.69385e-06
1.02898e-08
-2.70395e-06
1.00991e-08
-2.71387e-06
9.91938e-09
-2.72363e-06
9.75343e-09
-2.73324e-06
9.60208e-09
-2.74271e-06
9.46862e-09
-2.75207e-06
9.35415e-09
-2.76133e-06
9.26273e-09
-2.77053e-06
9.19559e-09
-2.77969e-06
9.15765e-09
-2.78885e-06
9.15032e-09
-2.79803e-06
9.17924e-09
-2.80728e-06
9.24592e-09
-2.81663e-06
9.35652e-09
-2.82615e-06
9.51274e-09
-2.83587e-06
9.7213e-09
-2.84585e-06
9.98401e-09
-2.85615e-06
1.03076e-08
-2.86683e-06
1.06936e-08
-2.87796e-06
1.1147e-08
-2.88962e-06
1.167e-08
-2.90187e-06
1.22661e-08
-2.9148e-06
1.29377e-08
-2.92847e-06
1.36872e-08
-2.94297e-06
1.4515e-08
-2.95838e-06
1.54213e-08
-2.97477e-06
1.6404e-08
-2.99221e-06
1.746e-08
-3.01078e-06
1.85839e-08
-3.03054e-06
1.97685e-08
-3.05152e-06
2.10037e-08
-3.07378e-06
2.22774e-08
-3.09734e-06
2.35741e-08
-3.1222e-06
2.48758e-08
-3.14834e-06
2.61608e-08
-3.17573e-06
2.74049e-08
-3.2043e-06
2.85798e-08
-3.23393e-06
2.9655e-08
-3.26451e-06
3.05961e-08
-3.29587e-06
3.13667e-08
-3.32778e-06
3.19261e-08
-3.36e-06
3.22313e-08
-3.39222e-06
3.22368e-08
-3.4241e-06
3.18972e-08
-3.45526e-06
3.11645e-08
-3.48523e-06
2.99815e-08
-3.51349e-06
2.82738e-08
-3.53945e-06
2.59615e-08
-3.5624e-06
2.29605e-08
-3.5815e-06
1.91079e-08
-3.59552e-06
1.40192e-08
-3.60272e-06
7.19671e-09
-3.60138e-06
-1.33607e-09
-3.59032e-06
-1.1062e-08
-3.56607e-06
-2.42577e-08
-3.52189e-06
-4.41826e-08
-3.45596e-06
-6.59393e-08
-3.36406e-06
-9.19091e-08
-2.22243e-07
-3.14182e-06
-2.45827e-08
4.54254e-08
-4.82407e-08
4.63909e-08
-7.2716e-08
4.77123e-08
-9.78601e-08
4.88753e-08
-1.23566e-07
4.99288e-08
-1.49776e-07
5.08891e-08
-1.76441e-07
5.17638e-08
-2.03521e-07
5.25621e-08
-2.30977e-07
5.32929e-08
-2.58776e-07
5.39639e-08
-2.86889e-07
5.45814e-08
-3.1529e-07
5.51508e-08
-3.43953e-07
5.56759e-08
-3.72856e-07
5.61599e-08
-4.01977e-07
5.66047e-08
-4.31295e-07
5.70116e-08
-4.60791e-07
5.73816e-08
-4.90443e-07
5.7715e-08
-5.20233e-07
5.80118e-08
-5.5014e-07
5.82723e-08
-5.80145e-07
5.84965e-08
-6.10229e-07
5.86845e-08
-6.40374e-07
5.88366e-08
-6.70559e-07
5.89533e-08
-7.00768e-07
5.90353e-08
-7.30982e-07
5.90832e-08
-7.61185e-07
5.90982e-08
-7.9136e-07
5.90813e-08
-8.21491e-07
5.90337e-08
-8.51564e-07
5.89567e-08
-8.81564e-07
5.88517e-08
-9.11478e-07
5.87202e-08
-9.41294e-07
5.85635e-08
-9.70999e-07
5.83832e-08
-1.00058e-06
5.81806e-08
-1.03004e-06
5.79572e-08
-1.05935e-06
5.77144e-08
-1.08851e-06
5.74534e-08
-1.11751e-06
5.71757e-08
-1.14635e-06
5.68824e-08
-1.17502e-06
5.65747e-08
-1.2035e-06
5.62537e-08
-1.23181e-06
5.59206e-08
-1.25992e-06
5.55763e-08
-1.28784e-06
5.52216e-08
-1.31556e-06
5.48576e-08
-1.34308e-06
5.4485e-08
-1.3704e-06
5.41046e-08
-1.3975e-06
5.3717e-08
-1.4244e-06
5.33229e-08
-1.45108e-06
5.29229e-08
-1.47754e-06
5.25176e-08
-1.50379e-06
5.21074e-08
-1.52981e-06
5.16927e-08
-1.55561e-06
5.12742e-08
-1.58119e-06
5.08519e-08
-1.60655e-06
5.04264e-08
-1.63168e-06
4.99979e-08
-1.65658e-06
4.95667e-08
-1.68125e-06
4.9133e-08
-1.7057e-06
4.86971e-08
-1.72991e-06
4.82591e-08
-1.7539e-06
4.78192e-08
-1.77766e-06
4.73775e-08
-1.80118e-06
4.69342e-08
-1.82448e-06
4.64894e-08
-1.84754e-06
4.60432e-08
-1.87037e-06
4.55956e-08
-1.89296e-06
4.51468e-08
-1.91533e-06
4.46967e-08
-1.93745e-06
4.42455e-08
-1.95935e-06
4.37931e-08
-1.98101e-06
4.33397e-08
-2.00244e-06
4.28852e-08
-2.02363e-06
4.24296e-08
-2.04458e-06
4.19729e-08
-2.0653e-06
4.15152e-08
-2.08579e-06
4.10564e-08
-2.10604e-06
4.05966e-08
-2.12605e-06
4.01357e-08
-2.14582e-06
3.96737e-08
-2.16536e-06
3.92104e-08
-2.18466e-06
3.87461e-08
-2.20372e-06
3.82804e-08
-2.22254e-06
3.78136e-08
-2.24112e-06
3.73454e-08
-2.25946e-06
3.6876e-08
-2.27756e-06
3.64051e-08
-2.29541e-06
3.59328e-08
-2.31303e-06
3.54589e-08
-2.3304e-06
3.49835e-08
-2.34753e-06
3.45065e-08
-2.36442e-06
3.40279e-08
-2.38106e-06
3.35477e-08
-2.39746e-06
3.30659e-08
-2.41361e-06
3.25824e-08
-2.42952e-06
3.20973e-08
-2.44518e-06
3.16108e-08
-2.46059e-06
3.11226e-08
-2.47575e-06
3.0633e-08
-2.49066e-06
3.0142e-08
-2.50532e-06
2.96496e-08
-2.51973e-06
2.91561e-08
-2.5339e-06
2.86616e-08
-2.54781e-06
2.81665e-08
-2.56147e-06
2.76709e-08
-2.57488e-06
2.71754e-08
-2.58803e-06
2.66801e-08
-2.60094e-06
2.61857e-08
-2.6136e-06
2.56923e-08
-2.62601e-06
2.52009e-08
-2.63818e-06
2.47117e-08
-2.6501e-06
2.4226e-08
-2.66178e-06
2.37442e-08
-2.67322e-06
2.3268e-08
-2.68442e-06
2.27978e-08
-2.69539e-06
2.23357e-08
-2.70614e-06
2.18831e-08
-2.71667e-06
2.1442e-08
-2.72698e-06
2.10137e-08
-2.7371e-06
2.06011e-08
-2.74702e-06
2.02062e-08
-2.75675e-06
1.98328e-08
-2.76632e-06
1.94837e-08
-2.77574e-06
1.91633e-08
-2.78501e-06
1.88748e-08
-2.79417e-06
1.86236e-08
-2.80323e-06
1.84136e-08
-2.81223e-06
1.82512e-08
-2.82118e-06
1.81411e-08
-2.83011e-06
1.8091e-08
-2.83907e-06
1.81062e-08
-2.84809e-06
1.81955e-08
-2.85721e-06
1.83646e-08
-2.86648e-06
1.8623e-08
-2.87594e-06
1.8977e-08
-2.88566e-06
1.94366e-08
-2.89568e-06
2.00089e-08
-2.90607e-06
2.07027e-08
-2.91688e-06
2.15244e-08
-2.92821e-06
2.24806e-08
-2.9401e-06
2.35775e-08
-2.95264e-06
2.48199e-08
-2.96591e-06
2.6213e-08
-2.97997e-06
2.77585e-08
-2.9949e-06
2.94577e-08
-3.01077e-06
3.13075e-08
-3.02766e-06
3.33035e-08
-3.04562e-06
3.54359e-08
-3.06471e-06
3.76925e-08
-3.08499e-06
4.0055e-08
-3.10647e-06
4.25016e-08
-3.12918e-06
4.50035e-08
-3.15312e-06
4.75275e-08
-3.17826e-06
5.00328e-08
-3.20456e-06
5.24736e-08
-3.23193e-06
5.47963e-08
-3.26028e-06
5.69424e-08
-3.28945e-06
5.88456e-08
-3.31928e-06
6.04351e-08
-3.34953e-06
6.16333e-08
-3.37995e-06
6.23582e-08
-3.41022e-06
6.25211e-08
-3.44e-06
6.20301e-08
-3.46889e-06
6.07892e-08
-3.49641e-06
5.86964e-08
-3.52205e-06
5.56349e-08
-3.54523e-06
5.14662e-08
-3.5653e-06
4.60368e-08
-3.58152e-06
3.91801e-08
-3.59307e-06
3.06693e-08
-3.59921e-06
2.01543e-08
-3.59932e-06
7.30694e-09
-3.59267e-06
-7.98096e-09
-3.57715e-06
-2.65884e-08
-3.54953e-06
-5.18834e-08
-3.50668e-06
-8.70449e-08
-3.44643e-06
-1.26197e-07
-3.36206e-06
-1.76297e-07
-3.41726e-07
-3.24258e-06
-2.41666e-08
6.95918e-08
-4.94486e-08
7.16727e-08
-7.52391e-08
7.35026e-08
-1.01542e-07
7.51777e-08
-1.28325e-07
7.67122e-08
-1.55553e-07
7.81165e-08
-1.8319e-07
7.94006e-08
-2.11203e-07
8.05751e-08
-2.39561e-07
8.16505e-08
-2.68233e-07
8.26361e-08
-2.97192e-07
8.35401e-08
-3.26411e-07
8.43694e-08
-3.55865e-07
8.51295e-08
-3.8553e-07
8.58244e-08
-4.15382e-07
8.64572e-08
-4.45401e-07
8.70299e-08
-4.75563e-07
8.75441e-08
-5.05849e-07
8.80004e-08
-5.36237e-07
8.83997e-08
-5.66707e-07
8.87421e-08
-5.97239e-07
8.90284e-08
-6.27814e-07
8.92591e-08
-6.58413e-07
8.94349e-08
-6.89017e-07
8.9557e-08
-7.19608e-07
8.96265e-08
-7.5017e-07
8.9645e-08
-7.80687e-07
8.96143e-08
-8.11142e-07
8.95361e-08
-8.41521e-07
8.94126e-08
-8.71811e-07
8.92458e-08
-9.01997e-07
8.90381e-08
-9.32069e-07
8.87916e-08
-9.62015e-07
8.85086e-08
-9.91823e-07
8.81913e-08
-1.02149e-06
8.78421e-08
-1.05099e-06
8.74631e-08
-1.08033e-06
8.70563e-08
-1.10951e-06
8.66239e-08
-1.1385e-06
8.61678e-08
-1.16731e-06
8.56897e-08
-1.19592e-06
8.51915e-08
-1.22434e-06
8.46749e-08
-1.25257e-06
8.41413e-08
-1.28058e-06
8.35923e-08
-1.30839e-06
8.30292e-08
-1.33599e-06
8.24533e-08
-1.36337e-06
8.18657e-08
-1.39053e-06
8.12676e-08
-1.41747e-06
8.06599e-08
-1.4442e-06
8.00436e-08
-1.47069e-06
7.94194e-08
-1.49696e-06
7.87882e-08
-1.52301e-06
7.81507e-08
-1.54882e-06
7.75075e-08
-1.57441e-06
7.68592e-08
-1.59976e-06
7.62062e-08
-1.62489e-06
7.55491e-08
-1.64978e-06
7.48882e-08
-1.67444e-06
7.4224e-08
-1.69886e-06
7.35568e-08
-1.72305e-06
7.28868e-08
-1.74701e-06
7.22143e-08
-1.77073e-06
7.15395e-08
-1.79421e-06
7.08627e-08
-1.81746e-06
7.01839e-08
-1.84048e-06
6.95034e-08
-1.86326e-06
6.88211e-08
-1.8858e-06
6.81374e-08
-1.90811e-06
6.74522e-08
-1.93018e-06
6.67655e-08
-1.95201e-06
6.60775e-08
-1.97361e-06
6.53882e-08
-1.99496e-06
6.46975e-08
-2.01609e-06
6.40056e-08
-2.03697e-06
6.33124e-08
-2.05761e-06
6.26178e-08
-2.07802e-06
6.1922e-08
-2.09819e-06
6.12248e-08
-2.11812e-06
6.05263e-08
-2.13781e-06
5.98263e-08
-2.15727e-06
5.91249e-08
-2.17648e-06
5.84219e-08
-2.19545e-06
5.77174e-08
-2.21418e-06
5.70112e-08
-2.23267e-06
5.63034e-08
-2.25092e-06
5.55937e-08
-2.26893e-06
5.48822e-08
-2.2867e-06
5.41687e-08
-2.30422e-06
5.34532e-08
-2.32149e-06
5.27357e-08
-2.33852e-06
5.20159e-08
-2.35531e-06
5.12939e-08
-2.37186e-06
5.05696e-08
-2.38815e-06
4.98429e-08
-2.40421e-06
4.91139e-08
-2.42001e-06
4.83826e-08
-2.43556e-06
4.7649e-08
-2.45087e-06
4.69131e-08
-2.46592e-06
4.6175e-08
-2.48073e-06
4.54347e-08
-2.49528e-06
4.46924e-08
-2.50958e-06
4.39482e-08
-2.52363e-06
4.32022e-08
-2.53743e-06
4.24551e-08
-2.55098e-06
4.17068e-08
-2.56427e-06
4.09582e-08
-2.5773e-06
4.02095e-08
-2.59009e-06
3.94614e-08
-2.60262e-06
3.87142e-08
-2.6149e-06
3.79692e-08
-2.62693e-06
3.72266e-08
-2.63871e-06
3.6488e-08
-2.65024e-06
3.57541e-08
-2.66152e-06
3.50267e-08
-2.67256e-06
3.43069e-08
-2.68336e-06
3.3597e-08
-2.69393e-06
3.28989e-08
-2.70426e-06
3.22153e-08
-2.71437e-06
3.15484e-08
-2.72426e-06
3.09014e-08
-2.73393e-06
3.02774e-08
-2.74341e-06
2.96805e-08
-2.7527e-06
2.91153e-08
-2.76181e-06
2.85871e-08
-2.77075e-06
2.81013e-08
-2.77954e-06
2.7664e-08
-2.7882e-06
2.72815e-08
-2.79675e-06
2.69616e-08
-2.80522e-06
2.67118e-08
-2.81362e-06
2.65412e-08
-2.82199e-06
2.64589e-08
-2.83037e-06
2.64752e-08
-2.83877e-06
2.66004e-08
-2.84726e-06
2.68458e-08
-2.85586e-06
2.72226e-08
-2.86462e-06
2.77427e-08
-2.87361e-06
2.84181e-08
-2.88285e-06
2.92611e-08
-2.89242e-06
3.02826e-08
-2.90238e-06
3.14929e-08
-2.91279e-06
3.2901e-08
-2.92371e-06
3.4515e-08
-2.93523e-06
3.63429e-08
-2.94739e-06
3.83898e-08
-2.96028e-06
4.06589e-08
-2.97397e-06
4.31492e-08
-2.9885e-06
4.58565e-08
-3.00396e-06
4.87708e-08
-3.02039e-06
5.18776e-08
-3.03784e-06
5.51554e-08
-3.05635e-06
5.85763e-08
-3.07594e-06
6.21043e-08
-3.09662e-06
6.56955e-08
-3.11838e-06
6.92969e-08
-3.14118e-06
7.28466e-08
-3.16497e-06
7.62731e-08
-3.18966e-06
7.94955e-08
-3.21512e-06
8.24234e-08
-3.24122e-06
8.49578e-08
-3.26777e-06
8.69909e-08
-3.29453e-06
8.84074e-08
-3.32124e-06
8.90842e-08
-3.3476e-06
8.8891e-08
-3.37325e-06
8.76918e-08
-3.3978e-06
8.53453e-08
-3.4208e-06
8.17037e-08
-3.44176e-06
7.66034e-08
-3.46014e-06
6.98593e-08
-3.47537e-06
6.12719e-08
-3.48682e-06
5.0634e-08
-3.49383e-06
3.7684e-08
-3.49569e-06
2.2027e-08
-3.49158e-06
3.19308e-09
-3.48026e-06
-1.92976e-08
-3.46005e-06
-4.67948e-08
-3.42913e-06
-8.27979e-08
-3.38622e-06
-1.29963e-07
-3.32883e-06
-1.83586e-07
-3.24882e-06
-2.56304e-07
-4.30903e-07
-3.15965e-06
-2.53706e-08
9.49622e-08
-5.13657e-08
9.76677e-08
-7.79655e-08
1.00102e-07
-1.05102e-07
1.02314e-07
-1.32722e-07
1.04332e-07
-1.60777e-07
1.06171e-07
-1.89221e-07
1.07845e-07
-2.18017e-07
1.0937e-07
-2.47126e-07
1.10759e-07
-2.76514e-07
1.12025e-07
-3.06151e-07
1.13177e-07
-3.36007e-07
1.14225e-07
-3.66054e-07
1.15177e-07
-3.96267e-07
1.16037e-07
-4.2662e-07
1.1681e-07
-4.5709e-07
1.175e-07
-4.87654e-07
1.18108e-07
-5.18291e-07
1.18636e-07
-5.48978e-07
1.19086e-07
-5.79695e-07
1.19459e-07
-6.10423e-07
1.19756e-07
-6.41143e-07
1.19979e-07
-6.71836e-07
1.20128e-07
-7.02485e-07
1.20206e-07
-7.33074e-07
1.20215e-07
-7.63587e-07
1.20158e-07
-7.9401e-07
1.20036e-07
-8.24328e-07
1.19854e-07
-8.54528e-07
1.19613e-07
-8.846e-07
1.19317e-07
-9.14531e-07
1.18969e-07
-9.44311e-07
1.18571e-07
-9.73931e-07
1.18128e-07
-1.00338e-06
1.17642e-07
-1.03266e-06
1.17117e-07
-1.06175e-06
1.16554e-07
-1.09065e-06
1.15957e-07
-1.11935e-06
1.15328e-07
-1.14786e-06
1.14671e-07
-1.17615e-06
1.13986e-07
-1.20424e-06
1.13278e-07
-1.23211e-06
1.12547e-07
-1.25977e-06
1.11796e-07
-1.2872e-06
1.11026e-07
-1.31442e-06
1.1024e-07
-1.3414e-06
1.09439e-07
-1.36816e-06
1.08624e-07
-1.39469e-06
1.07797e-07
-1.42099e-06
1.06959e-07
-1.44706e-06
1.06111e-07
-1.47289e-06
1.05254e-07
-1.49849e-06
1.04389e-07
-1.52386e-06
1.03517e-07
-1.54899e-06
1.02638e-07
-1.57388e-06
1.01754e-07
-1.59854e-06
1.00865e-07
-1.62297e-06
9.99714e-08
-1.64715e-06
9.90739e-08
-1.6711e-06
9.81728e-08
-1.69481e-06
9.72685e-08
-1.71829e-06
9.63614e-08
-1.74153e-06
9.54517e-08
-1.76453e-06
9.45398e-08
-1.78729e-06
9.36257e-08
-1.80982e-06
9.27098e-08
-1.83211e-06
9.1792e-08
-1.85416e-06
9.08727e-08
-1.87598e-06
8.99518e-08
-1.89756e-06
8.90295e-08
-1.9189e-06
8.81057e-08
-1.94e-06
8.71807e-08
-1.96087e-06
8.62542e-08
-1.9815e-06
8.53265e-08
-2.00189e-06
8.43973e-08
-2.02205e-06
8.34668e-08
-2.04196e-06
8.25349e-08
-2.06164e-06
8.16016e-08
-2.08109e-06
8.06667e-08
-2.10029e-06
7.97303e-08
-2.11926e-06
7.87922e-08
-2.13799e-06
7.78524e-08
-2.15648e-06
7.69108e-08
-2.17473e-06
7.59673e-08
-2.19274e-06
7.50218e-08
-2.21051e-06
7.40742e-08
-2.22804e-06
7.31244e-08
-2.24533e-06
7.21722e-08
-2.26238e-06
7.12176e-08
-2.27919e-06
7.02605e-08
-2.29576e-06
6.93006e-08
-2.31208e-06
6.8338e-08
-2.32816e-06
6.73724e-08
-2.34399e-06
6.64039e-08
-2.35959e-06
6.54323e-08
-2.37493e-06
6.44576e-08
-2.39003e-06
6.34799e-08
-2.40488e-06
6.2499e-08
-2.41949e-06
6.15151e-08
-2.43385e-06
6.05283e-08
-2.44795e-06
5.95385e-08
-2.46181e-06
5.8546e-08
-2.47542e-06
5.75508e-08
-2.48877e-06
5.65532e-08
-2.50187e-06
5.55539e-08
-2.51473e-06
5.45531e-08
-2.52732e-06
5.35516e-08
-2.53967e-06
5.25498e-08
-2.55176e-06
5.15485e-08
-2.56359e-06
5.05482e-08
-2.57518e-06
4.95503e-08
-2.58651e-06
4.85555e-08
-2.59759e-06
4.75654e-08
-2.60842e-06
4.65812e-08
-2.619e-06
4.56051e-08
-2.62933e-06
4.46386e-08
-2.63942e-06
4.36846e-08