/*--------------------------------*- C++ -*----------------------------------*\
| =========                 |                                                 |
| \\      /  F ield         | OpenFOAM: The Open Source CFD Toolbox           |
|  \\    /   O peration     | Version:  2406                                  |
|   \\  /    A nd           | Website:  www.openfoam.com                      |
|    \\/     M anipulation  |                                                 |
\*---------------------------------------------------------------------------*/
FoamFile
{
    version     2.0;
    format      ascii;
    arch        "LSB;label=32;scalar=64";
    class       volVectorField;
    location    "272";
    object      U;
}
// * * * * * * * * * * * * * * * * * * * * * * * * * * * * * * * * * * * * * //

dimensions      [0 1 -1 0 0 0 0];

internalField   nonuniform List<vector> 
12225
(
(9.8915 0.0258292 0)
(9.77946 0.0276293 0)
(9.69458 0.0189061 0)
(9.62319 0.0143647 0)
(9.56434 0.012551 0)
(9.51309 0.0115313 0)
(9.46646 0.0108445 0)
(9.4234 0.0104067 0)
(9.38307 0.0101748 0)
(9.34455 0.0101472 0)
(9.30688 0.010368 0)
(9.26908 0.0109336 0)
(9.22926 0.0120607 0)
(9.18629 0.0142625 0)
(9.1291 0.0188788 0)
(9.06853 0.030143 0)
(8.84426 0.0939701 0)
(8.8787 -0.147064 0)
(9.99698 0.029563 0)
(9.95641 0.0318162 0)
(9.88811 0.0240958 0)
(9.82151 0.0208012 0)
(9.76511 0.0190088 0)
(9.71553 0.0176169 0)
(9.67023 0.0166766 0)
(9.62829 0.0161155 0)
(9.58898 0.0158583 0)
(9.55151 0.0159186 0)
(9.51505 0.0163712 0)
(9.47884 0.0173922 0)
(9.44143 0.0192779 0)
(9.40252 0.023073 0)
(9.35483 0.0298691 0)
(9.31144 0.0509897 0)
(9.22491 0.0980431 0)
(9.30425 0.276596 0)
(10.0077 0.0334332 0)
(10.0105 0.0423529 0)
(9.98086 0.037907 0)
(9.93775 0.0351342 0)
(9.89508 0.0327632 0)
(9.85476 0.0306994 0)
(9.81632 0.0292896 0)
(9.7797 0.0284554 0)
(9.74463 0.0281048 0)
(9.71062 0.028275 0)
(9.67706 0.0290904 0)
(9.64335 0.0308336 0)
(9.60826 0.0339352 0)
(9.57146 0.0398718 0)
(9.52833 0.0498523 0)
(9.48674 0.0752138 0)
(9.43121 0.119051 0)
(9.45406 0.244466 0)
(10.0075 0.0288923 0)
(10.0254 0.0438358 0)
(10.022 0.0444746 0)
(10.0025 0.0441417 0)
(9.97739 0.0428592 0)
(9.95026 0.0412029 0)
(9.92206 0.0399476 0)
(9.89361 0.0392339 0)
(9.86525 0.0390643 0)
(9.83691 0.0395418 0)
(9.80828 0.0408589 0)
(9.77898 0.043394 0)
(9.7482 0.0477034 0)
(9.71578 0.0554024 0)
(9.67942 0.0678717 0)
(9.64433 0.0937843 0)
(9.60688 0.131798 0)
(9.60831 0.209234 0)
(10.0054 0.0234133 0)
(10.025 0.0410449 0)
(10.0341 0.0453549 0)
(10.0306 0.0476108 0)
(10.0206 0.0482931 0)
(10.0066 0.047944 0)
(9.98962 0.0475364 0)
(9.97063 0.0474577 0)
(9.95039 0.0478556 0)
(9.92913 0.048928 0)
(9.90682 0.050951 0)
(9.88336 0.0543813 0)
(9.85836 0.0598631 0)
(9.83192 0.0689276 0)
(9.80336 0.0829508 0)
(9.77648 0.107673 0)
(9.75248 0.141268 0)
(9.75109 0.196006 0)
(10.0038 0.0188709 0)
(10.0205 0.0370382 0)
(10.0333 0.0435171 0)
(10.0381 0.0475968 0)
(10.0378 0.0500818 0)
(10.0336 0.0512614 0)
(10.0261 0.0520462 0)
(10.0159 0.0529481 0)
(10.0037 0.0542178 0)
(9.98969 0.0561298 0)
(9.97417 0.059031 0)
(9.95717 0.0634265 0)
(9.93865 0.0699926 0)
(9.91899 0.0800481 0)
(9.89849 0.0947926 0)
(9.88014 0.117674 0)
(9.86678 0.147286 0)
(9.86828 0.18783 0)
(10.0026 0.0153093 0)
(10.0157 0.0329282 0)
(10.0285 0.0406484 0)
(10.0363 0.045788 0)
(10.0407 0.0495129 0)
(10.0424 0.0519697 0)
(10.0414 0.0539026 0)
(10.0377 0.0558442 0)
(10.032 0.0580888 0)
(10.0243 0.0609419 0)
(10.015 0.064783 0)
(10.0042 0.0701225 0)
(9.99201 0.0776059 0)
(9.97906 0.0882823 0)
(9.96614 0.103071 0)
(9.95566 0.123802 0)
(9.95049 0.149292 0)
(9.95569 0.179633 0)
(10.0018 0.0125282 0)
(10.0119 0.0290742 0)
(10.0231 0.037495 0)
(10.0315 0.043216 0)
(10.0376 0.0476775 0)
(10.042 0.0510317 0)
(10.0445 0.0538643 0)
(10.0449 0.0566877 0)
(10.0436 0.0598103 0)
(10.0406 0.0635352 0)
(10.0362 0.0682338 0)
(10.0305 0.0743781 0)
(10.0238 0.0825297 0)
(10.0167 0.0934561 0)
(10.0103 0.107763 0)
(10.0063 0.126223 0)
(10.0072 0.147743 0)
(10.0156 0.170919 0)
(10.0012 0.0103655 0)
(10.0089 0.0256004 0)
(10.0185 0.0343646 0)
(10.0265 0.0404192 0)
(10.0329 0.0452983 0)
(10.0381 0.0492391 0)
(10.0421 0.0527078 0)
(10.0446 0.0561834 0)
(10.0459 0.0599824 0)
(10.0459 0.0643925 0)
(10.0448 0.0697514 0)
(10.0429 0.0764633 0)
(10.0404 0.0849731 0)
(10.0379 0.0957887 0)
(10.0365 0.109228 0)
(10.0375 0.125435 0)
(10.0426 0.143399 0)
(10.0531 0.161477 0)
(10.0008 0.00868633 0)
(10.0067 0.0225304 0)
(10.0148 0.0313639 0)
(10.0221 0.0376147 0)
(10.0282 0.0427349 0)
(10.0335 0.0470586 0)
(10.038 0.0509676 0)
(10.0415 0.0548974 0)
(10.0441 0.0591659 0)
(10.0458 0.0640428 0)
(10.0469 0.0698207 0)
(10.0474 0.0768231 0)
(10.0478 0.0853706 0)
(10.0487 0.0957546 0)
(10.0508 0.108066 0)
(10.0551 0.122119 0)
(10.0628 0.13701 0)
(10.0744 0.151317 0)
(10.0006 0.00737391 0)
(10.0051 0.0198472 0)
(10.0118 0.0285264 0)
(10.0184 0.0348655 0)
(10.0242 0.0401206 0)
(10.0294 0.0446945 0)
(10.0339 0.0489106 0)
(10.0378 0.0531512 0)
(10.0411 0.0577227 0)
(10.0438 0.062873 0)
(10.0462 0.068845 0)
(10.0483 0.0758812 0)
(10.0507 0.0841879 0)
(10.0538 0.0938929 0)
(10.0581 0.104933 0)
(10.0645 0.116981 0)
(10.0734 0.129264 0)
(10.0853 0.140697 0)
(10.0005 0.00638741 0)
(10.004 0.01767 0)
(10.0097 0.0260615 0)
(10.0157 0.0323938 0)
(10.0212 0.0377037 0)
(10.0262 0.0424197 0)
(10.0307 0.046827 0)
(10.0348 0.051256 0)
(10.0385 0.0559901 0)
(10.0418 0.0612513 0)
(10.0449 0.0672358 0)
(10.0481 0.0741168 0)
(10.0517 0.0820128 0)
(10.0561 0.0909458 0)
(10.0617 0.100772 0)
(10.069 0.11113 0)
(10.0784 0.121383 0)
(10.09 0.130741 0)
(10.0004 0.00557745 0)
(10.0033 0.0157372 0)
(10.0081 0.023721 0)
(10.0135 0.0299646 0)
(10.0187 0.0352727 0)
(10.0235 0.0400614 0)
(10.0281 0.0445877 0)
(10.0323 0.0491315 0)
(10.0363 0.0539433 0)
(10.0401 0.0592152 0)
(10.0438 0.0650991 0)
(10.0478 0.0717088 0)
(10.0523 0.0790945 0)
(10.0575 0.0872099 0)
(10.0639 0.0958711 0)
(10.0717 0.104735 0)
(10.0811 0.113285 0)
(10.0921 0.120968 0)
(10.0003 0.00481927 0)
(10.0026 0.0137912 0)
(10.0067 0.0212033 0)
(10.0116 0.0272347 0)
(10.0164 0.0324538 0)
(10.0211 0.0372324 0)
(10.0257 0.0418001 0)
(10.0301 0.0463817 0)
(10.0344 0.051182 0)
(10.0387 0.0563553 0)
(10.043 0.0620077 0)
(10.0477 0.0681979 0)
(10.0528 0.074921 0)
(10.0587 0.0820877 0)
(10.0656 0.089506 0)
(10.0736 0.0968813 0)
(10.0827 0.103825 0)
(10.093 0.109978 0)
(10.0002 0.00409096 0)
(10.0021 0.0118288 0)
(10.0056 0.0185066 0)
(10.0099 0.0241674 0)
(10.0145 0.0291735 0)
(10.0191 0.0338253 0)
(10.0238 0.0383179 0)
(10.0284 0.0428211 0)
(10.033 0.0474867 0)
(10.0377 0.0524246 0)
(10.0426 0.0576973 0)
(10.0479 0.0633183 0)
(10.0536 0.0692459 0)
(10.0599 0.0753745 0)
(10.067 0.0815315 0)
(10.075 0.0874888 0)
(10.0837 0.0929762 0)
(10.0932 0.0977871 0)
(10.0002 0.00337068 0)
(10.0018 0.0098246 0)
(10.0048 0.0156012 0)
(10.0087 0.0206967 0)
(10.0131 0.0253208 0)
(10.0176 0.0296867 0)
(10.0224 0.0339435 0)
(10.0272 0.0382087 0)
(10.0322 0.04258 0)
(10.0373 0.0471226 0)
(10.0427 0.0518608 0)
(10.0484 0.0567777 0)
(10.0545 0.0618149 0)
(10.0611 0.0668727 0)
(10.0683 0.0718148 0)
(10.076 0.0764818 0)
(10.0842 0.080701 0)
(10.0929 0.0843704 0)
(10.0002 0.00262681 0)
(10.0016 0.00770798 0)
(10.0042 0.0123993 0)
(10.0079 0.0167021 0)
(10.0122 0.0207278 0)
(10.0168 0.0246033 0)
(10.0216 0.0284227 0)
(10.0267 0.0322542 0)
(10.032 0.0361469 0)
(10.0375 0.0401258 0)
(10.0432 0.0441869 0)
(10.0492 0.0482974 0)
(10.0556 0.0523986 0)
(10.0623 0.0564101 0)
(10.0694 0.0602359 0)
(10.0768 0.0637756 0)
(10.0844 0.0669275 0)
(10.0923 0.0696542 0)
(10.0002 0.0018059 0)
(10.0015 0.00534038 0)
(10.004 0.0087179 0)
(10.0076 0.0119653 0)
(10.0119 0.0151342 0)
(10.0166 0.0182757 0)
(10.0216 0.0214268 0)
(10.0269 0.02461 0)
(10.0325 0.0278339 0)
(10.0383 0.0310919 0)
(10.0443 0.0343607 0)
(10.0505 0.0376023 0)
(10.057 0.0407665 0)
(10.0636 0.0437952 0)
(10.0705 0.0466274 0)
(10.0775 0.0492053 0)
(10.0845 0.0514742 0)
(10.0917 0.053431 0)
(10.0002 0.000814293 0)
(10.0015 0.00246832 0)
(10.0042 0.00420982 0)
(10.008 0.00609638 0)
(10.0125 0.00812658 0)
(10.0174 0.0102776 0)
(10.0227 0.01253 0)
(10.0283 0.0148658 0)
(10.0341 0.0172605 0)
(10.0401 0.0196829 0)
(10.0463 0.0220973 0)
(10.0526 0.0244648 0)
(10.059 0.0267446 0)
(10.0655 0.0288962 0)
(10.0721 0.0308817 0)
(10.0787 0.0326692 0)
(10.0853 0.03423 0)
(10.0918 0.0355739 0)
(10.0002 -0.000222684 0)
(10.0018 -0.000529466 0)
(10.0049 -0.000462193 0)
(10.0091 6.45054e-05 0)
(10.0141 0.000973618 0)
(10.0194 0.00216027 0)
(10.025 0.00355619 0)
(10.0309 0.00511063 0)
(10.037 0.00677154 0)
(10.0431 0.00848784 0)
(10.0494 0.0102146 0)
(10.0558 0.0119121 0)
(10.0622 0.0135448 0)
(10.0686 0.0150807 0)
(10.0749 0.0164929 0)
(10.0813 0.0177606 0)
(10.0876 0.0188663 0)
(10.0938 0.0198207 0)
(10.0002 -0.0012263 0)
(10.0022 -0.00337229 0)
(10.0059 -0.00474919 0)
(10.0108 -0.00529453 0)
(10.0162 -0.00523044 0)
(10.022 -0.00475562 0)
(10.028 -0.00397335 0)
(10.0341 -0.00296106 0)
(10.0404 -0.0017978 0)
(10.0468 -0.00055155 0)
(10.0532 0.000726384 0)
(10.0596 0.0019954 0)
(10.0659 0.0032215 0)
(10.0723 0.00437636 0)
(10.0786 0.00543791 0)
(10.0848 0.0063902 0)
(10.0909 0.00722051 0)
(10.0968 0.0079384 0)
(10.0003 -0.00235106 0)
(10.0029 -0.0064365 0)
(10.0075 -0.00912815 0)
(10.0132 -0.0105315 0)
(10.0193 -0.0111284 0)
(10.0255 -0.0112071 0)
(10.0318 -0.0108866 0)
(10.0383 -0.0102743 0)
(10.0448 -0.00947919 0)
(10.0514 -0.0085815 0)
(10.0578 -0.00763454 0)
(10.0643 -0.00667847 0)
(10.0707 -0.00574625 0)
(10.077 -0.00486354 0)
(10.0832 -0.00404939 0)
(10.0893 -0.00331688 0)
(10.0952 -0.00267596 0)
(10.101 -0.00211988 0)
(10.0005 -0.00370395 0)
(10.004 -0.00988402 0)
(10.0099 -0.0136859 0)
(10.0166 -0.0157001 0)
(10.0233 -0.0167852 0)
(10.03 -0.0172654 0)
(10.0368 -0.0172574 0)
(10.0435 -0.0169131 0)
(10.0502 -0.0163716 0)
(10.0568 -0.0157165 0)
(10.0633 -0.014998 0)
(10.0697 -0.0142554 0)
(10.076 -0.0135207 0)
(10.0821 -0.0128173 0)
(10.0881 -0.0121619 0)
(10.0939 -0.0115666 0)
(10.0995 -0.011039 0)
(10.105 -0.0105792 0)
(10.0007 -0.00543937 0)
(10.0057 -0.01386 0)
(10.0133 -0.0184336 0)
(10.0211 -0.0207887 0)
(10.0284 -0.0222016 0)
(10.0356 -0.0229238 0)
(10.0426 -0.0230719 0)
(10.0495 -0.0228615 0)
(10.056 -0.0224517 0)
(10.0623 -0.0219184 0)
(10.0684 -0.0213078 0)
(10.0742 -0.0206595 0)
(10.0798 -0.0200047 0)
(10.0851 -0.0193658 0)
(10.0902 -0.0187582 0)
(10.0951 -0.0181944 0)
(10.0997 -0.0176806 0)
(10.1041 -0.0172284 0)
(10.0011 -0.00777122 0)
(10.0085 -0.0184445 0)
(10.0182 -0.0233127 0)
(10.0269 -0.0257454 0)
(10.0345 -0.0272896 0)
(10.0415 -0.0280191 0)
(10.0479 -0.0280963 0)
(10.0537 -0.0278101 0)
(10.0588 -0.0273241 0)
(10.0634 -0.0267059 0)
(10.0676 -0.0260044 0)
(10.0714 -0.0252638 0)
(10.0748 -0.0245166 0)
(10.0779 -0.0237844 0)
(10.0807 -0.0230824 0)
(10.0833 -0.0224229 0)
(10.0856 -0.0218097 0)
(10.0878 -0.0212657 0)
(10.0019 -0.0110335 0)
(10.0127 -0.023612 0)
(10.0244 -0.0281543 0)
(10.0328 -0.0303376 0)
(10.0387 -0.031591 0)
(10.0431 -0.0318399 0)
(10.0461 -0.0314137 0)
(10.0479 -0.0306807 0)
(10.0487 -0.0297954 0)
(10.0488 -0.0288212 0)
(10.0485 -0.027812 0)
(10.0478 -0.0268109 0)
(10.0469 -0.0258434 0)
(10.0458 -0.0249243 0)
(10.0447 -0.0240621 0)
(10.0435 -0.0232619 0)
(10.0422 -0.0225208 0)
(10.041 -0.0218576 0)
(10.0034 -0.0158191 0)
(10.0183 -0.0292124 0)
(10.0292 -0.0322796 0)
(10.0324 -0.0334229 0)
(10.031 -0.0335309 0)
(10.0271 -0.032573 0)
(10.0216 -0.0311626 0)
(10.015 -0.0296999 0)
(10.0078 -0.0282751 0)
(10.0006 -0.0269081 0)
(9.99347 -0.0256226 0)
(9.98656 -0.0244322 0)
(9.97992 -0.023338 0)
(9.97361 -0.0223365 0)
(9.96763 -0.0214235 0)
(9.96199 -0.0205914 0)
(9.95663 -0.0198291 0)
(9.95169 -0.0191167 0)
(10.0063 -0.0222147 0)
(10.0211 -0.0337666 0)
(10.0203 -0.0327328 0)
(10.0067 -0.031274 0)
(9.9889 -0.0295729 0)
(9.97059 -0.0274001 0)
(9.95252 -0.0253245 0)
(9.93519 -0.023565 0)
(9.91893 -0.0220544 0)
(9.90386 -0.0207244 0)
(9.88992 -0.019547 0)
(9.87703 -0.0185025 0)
(9.86513 -0.0175722 0)
(9.85413 -0.016741 0)
(9.84397 -0.015999 0)
(9.83457 -0.0153348 0)
(9.82585 -0.0147453 0)
(9.81784 -0.0141478 0)
(10.0087 -0.0235893 0)
(10.0012 -0.0295828 0)
(9.96577 -0.0230528 0)
(9.92356 -0.0192088 0)
(9.88613 -0.0171572 0)
(9.85395 -0.0154659 0)
(9.82546 -0.0140609 0)
(9.79997 -0.0129448 0)
(9.77715 -0.0120187 0)
(9.75664 -0.0112188 0)
(9.73812 -0.0105212 0)
(9.72132 -0.00991083 0)
(9.70603 -0.00937363 0)
(9.69207 -0.00889888 0)
(9.67931 -0.00848124 0)
(9.66759 -0.00812118 0)
(9.65689 -0.00783683 0)
(9.64698 -0.00786884 0)
(9.92618 -0.019751 0)
(9.84249 -0.0257219 0)
(9.7803 -0.0194648 0)
(9.72853 -0.014361 0)
(9.68699 -0.0116513 0)
(9.65256 -0.0100675 0)
(9.62254 -0.00898137 0)
(9.59589 -0.00817185 0)
(9.5722 -0.00752282 0)
(9.55103 -0.00697235 0)
(9.53201 -0.00649425 0)
(9.51483 -0.00607594 0)
(9.49925 -0.00570832 0)
(9.48506 -0.00538417 0)
(9.4721 -0.00509907 0)
(9.46019 -0.00486055 0)
(9.44917 -0.00465174 0)
(9.43862 -0.00517956 0)
(-0.0181509 0.0291913 -3.89533e-20)
(-0.0275504 0.0304571 2.18874e-20)
(-0.0480774 0.0307665 0)
(-0.0696233 0.0311176 0)
(-0.0910999 0.0315143 0)
(-0.112828 0.0318824 -2.1963e-20)
(-0.134977 0.0322024 0)
(-0.157522 0.0324787 0)
(-0.180418 0.0327163 0)
(-0.203637 0.0329188 0)
(-0.227158 0.0330892 2.19977e-20)
(-0.250962 0.0332306 0)
(-0.275032 0.0333456 0)
(-0.299351 0.0334363 0)
(-0.323903 0.0335039 0)
(-0.348675 0.0335497 2.20019e-20)
(-0.373651 0.0335741 0)
(-0.398819 0.0335777 0)
(-0.424162 0.0335606 0)
(-0.449668 0.0335231 0)
(-0.475321 0.0334654 0)
(-0.501107 0.0333877 0)
(-0.527012 0.0332905 0)
(-0.55302 0.0331742 2.19842e-20)
(-0.579117 0.0330393 -2.19818e-20)
(-0.605289 0.0328865 2.19796e-20)
(-0.631522 0.0327165 2.19776e-20)
(-0.657802 0.0325303 0)
(-0.684115 0.0323286 0)
(-0.71045 0.0321123 -2.19736e-20)
(-0.736793 0.0318824 -2.19731e-20)
(-0.763133 0.0316399 0)
(-0.789458 0.0313857 0)
(-0.815759 0.0311207 -2.19741e-20)
(-0.842024 0.0308459 0)
(-0.868244 0.0305621 0)
(-0.894411 0.0302704 2.19795e-20)
(-0.920515 0.0299714 0)
(-0.94655 0.029666 2.19854e-20)
(-0.972507 0.029355 4.39783e-20)
(-0.99838 0.0290391 0)
(-1.02416 0.0287189 0)
(-1.04985 0.0283953 0)
(-1.07543 0.0280686 0)
(-1.10091 0.0277395 0)
(-1.12628 0.0274085 4.40402e-20)
(-1.15153 0.0270761 4.4053e-20)
(-1.17666 0.0267426 4.40664e-20)
(-1.20166 0.0264086 0)
(-1.22654 0.0260744 -4.40946e-20)
(-1.2513 0.0257403 0)
(-1.27591 0.0254066 4.41244e-20)
(-1.3004 0.0250737 4.41397e-20)
(-1.32475 0.0247417 0)
(-1.34895 0.024411 0)
(-1.37302 0.0240816 0)
(-1.39694 0.0237538 4.4202e-20)
(-1.42072 0.0234276 0)
(-1.44436 0.0231035 0)
(-1.46784 0.0227812 0)
(-1.49118 0.022461 0)
(-1.51437 0.022143 0)
(-1.53741 0.0218274 0)
(-1.56029 0.0215139 0)
(-1.58302 0.021203 0)
(-1.6056 0.0208943 -4.43304e-20)
(-1.62803 0.0205882 0)
(-1.6503 0.0202846 0)
(-1.67241 0.0199836 4.43628e-20)
(-1.69437 0.019685 4.43718e-20)
(-1.71617 0.0193891 0)
(-1.73781 0.0190957 -4.43867e-20)
(-1.7593 0.018805 4.43925e-20)
(-1.78062 0.0185167 0)
(-1.80179 0.0182311 -4.44003e-20)
(-1.8228 0.017948 0)
(-1.84364 0.0176676 0)
(-1.86433 0.0173896 4.44017e-20)
(-1.88485 0.0171143 0)
(-1.90521 0.0168413 -4.4395e-20)
(-1.92541 0.016571 0)
(-1.94544 0.016303 4.43816e-20)
(-1.96531 0.0160376 4.43721e-20)
(-1.98502 0.0157745 4.43608e-20)
(-2.00456 0.0155138 8.86951e-20)
(-2.02393 0.0152554 -8.86645e-20)
(-2.04314 0.0149995 0)
(-2.06218 0.0147458 0)
(-2.08105 0.0144944 0)
(-2.09976 0.0142451 -8.8499e-20)
(-2.11829 0.0139978 -8.84462e-20)
(-2.13665 0.0137526 8.83886e-20)
(-2.15484 0.0135097 0)
(-2.17287 0.0132688 -8.82588e-20)
(-2.19072 0.0130301 -8.81863e-20)
(-2.20839 0.0127935 -8.81086e-20)
(-2.22589 0.012559 0)
(-2.24322 0.0123265 0)
(-2.26037 0.0120961 0)
(-2.27734 0.0118677 -8.77432e-20)
(-2.29414 0.0116414 0)
(-2.31075 0.0114171 0)
(-2.32719 0.011195 8.74084e-20)
(-2.34345 0.0109749 0)
(-2.35953 0.0107573 0)
(-2.37542 0.0105418 8.70173e-20)
(-2.39114 0.0103289 0)
(-2.40667 0.0101183 0)
(-2.42202 0.00991035 -8.65656e-20)
(-2.43719 0.00970498 -8.64009e-20)
(-2.45218 0.0095026 0)
(-2.46699 0.00930306 8.60494e-20)
(-2.48162 0.00910691 0)
(-2.49607 0.00891404 -8.56676e-20)
(-2.51035 0.00872506 0)
(-2.52445 0.00853995 -8.52544e-20)
(-2.53838 0.00835947 -8.50357e-20)
(-2.55215 0.00818367 0)
(-2.56575 0.00801332 0)
(-2.57919 0.00784855 0)
(-2.59249 0.00769019 0)
(-2.60564 0.00753872 0)
(-2.61866 0.0073953 0)
(-2.63155 0.00726046 0)
(-2.64433 0.00713556 -8.2984e-20)
(-2.65702 0.00702109 8.26886e-20)
(-2.66962 0.00691862 0)
(-2.68215 0.00682883 0)
(-2.69465 0.00675362 0)
(-2.70712 0.00669381 0)
(-2.7196 0.00665158 1.62163e-19)
(-2.73211 0.00662785 0)
(-2.7447 0.00662505 -1.6076e-19)
(-2.75739 0.00664411 1.60034e-19)
(-2.77023 0.00668765 0)
(-2.78327 0.00675666 0)
(-2.79654 0.0068539 0)
(-2.81012 0.00698028 -1.56988e-19)
(-2.82404 0.0071382 -1.56195e-19)
(-2.83838 0.00732805 0)
(-2.85321 0.0075515 -1.54579e-19)
(-2.86859 0.00780921 -1.53758e-19)
(-2.88461 0.00810234 1.52931e-19)
(-2.90134 0.00843139 0)
(-2.91886 0.00879666 0)
(-2.93725 0.00919756 1.50431e-19)
(-2.9566 0.00963315 0)
(-2.977 0.0101015 0)
(-2.99851 0.0106001 0)
(-3.02123 0.0111254 0)
(-3.04521 0.0116729 -1.46289e-19)
(-3.07053 0.0122369 -1.45476e-19)
(-3.09725 0.0128107 0)
(-3.12539 0.0133863 -1.43869e-19)
(-3.15498 0.0139546 0)
(-3.18603 0.0145053 0)
(-3.21851 0.0150267 -1.41488e-19)
(-3.25239 0.0155061 0)
(-3.28757 0.0159299 -1.39884e-19)
(-3.32396 0.0162831 0)
(-3.36141 0.0165501 0)
(-3.39972 0.0167143 -1.37328e-19)
(-3.43866 0.0167586 0)
(-3.47796 0.0166658 -1.35397e-19)
(-3.51729 0.0164185 0)
(-3.55626 0.0159958 0)
(-3.59444 0.015372 0)
(-3.63133 0.014516 1.30395e-19)
(-3.66635 0.0133918 0)
(-3.69885 0.0119408 -1.26941e-19)
(-3.72793 0.0100443 0)
(-3.7526 0.00753187 0)
(-3.77159 0.00431969 0)
(-3.78264 0.000498718 0)
(-3.7826 -0.00409222 0)
(-3.77185 -0.0107179 0)
(-3.75211 -0.0208136 0)
(-3.71167 -0.0363653 1.98218e-19)
(-3.60176 -0.0722288 0)
(-3.41795 -0.169693 0)
(-0.0209781 0.0583744 9.87192e-20)
(-0.0308282 0.0600134 -5.94819e-20)
(-0.052766 0.0612694 0)
(-0.0755138 0.0623079 3.96254e-20)
(-0.0982425 0.063203 0)
(-0.121306 0.0639661 1.98241e-20)
(-0.14484 0.0646067 -3.95469e-20)
(-0.168798 0.0651397 -3.95154e-20)
(-0.19313 0.0655793 0)
(-0.217803 0.0659374 -3.94451e-20)
(-0.24279 0.0662238 -1.97411e-20)
(-0.268069 0.0664465 0)
(-0.293617 0.066612 0)
(-0.319413 0.066725 0)
(-0.34544 0.0667891 0)
(-0.371678 0.0668068 -1.96375e-20)
(-0.398109 0.06678 0)
(-0.424717 0.0667099 3.91145e-20)
(-0.451484 0.0665974 0)
(-0.478393 0.0664435 0)
(-0.505427 0.0662488 -3.89866e-20)
(-0.53257 0.0660144 0)
(-0.559804 0.0657413 3.8904e-20)
(-0.587114 0.0654307 -1.94668e-20)
(-0.614483 0.0650841 1.94468e-20)
(-0.641895 0.0647029 -1.94273e-20)
(-0.669336 0.064289 -1.94083e-20)
(-0.696792 0.0638442 0)
(-0.724247 0.0633704 0)
(-0.751689 0.0628696 1.9355e-20)
(-0.779104 0.0623439 -1.92748e-20)
(-0.806482 0.0617952 0)
(-0.833809 0.0612257 0)
(-0.861077 0.0606371 1.92928e-20)
(-0.888274 0.0600315 0)
(-0.915392 0.0594107 0)
(-0.942422 0.0587766 -1.92529e-20)
(-0.969355 0.0581306 0)
(-0.996185 0.0574746 1.91731e-20)
(-1.02291 0.05681 -3.84368e-20)
(-1.04951 0.0561383 0)
(-1.07599 0.0554606 0)
(-1.10234 0.0547785 -7.66498e-20)
(-1.12857 0.0540928 -7.66158e-20)
(-1.15465 0.0534047 -7.65835e-20)
(-1.18059 0.0527152 3.82263e-20)
(-1.2064 0.0520252 -3.83107e-20)
(-1.23205 0.0513355 -1.14791e-19)
(-1.25755 0.0506468 7.64678e-20)
(-1.2829 0.0499598 3.82675e-20)
(-1.3081 0.0492751 0)
(-1.33314 0.0485932 -3.82408e-20)
(-1.35802 0.0479147 3.81391e-20)
(-1.38274 0.0472399 0)
(-1.4073 0.0465693 0)
(-1.43169 0.0459032 0)
(-1.45593 0.0452419 -3.81775e-20)
(-1.47999 0.0445857 0)
(-1.50389 0.0439347 7.62238e-20)
(-1.52763 0.0432892 0)
(-1.55119 0.0426493 7.61735e-20)
(-1.57459 0.0420152 0)
(-1.59782 0.041387 -7.61201e-20)
(-1.62088 0.0407646 0)
(-1.64377 0.0401484 7.60625e-20)
(-1.66649 0.0395381 -3.79804e-20)
(-1.68904 0.038934 0)
(-1.71141 0.038336 -7.59656e-20)
(-1.73362 0.0377442 -3.79986e-20)
(-1.75566 0.0371585 -3.79793e-20)
(-1.77752 0.036579 0)
(-1.79922 0.0360055 -3.78737e-20)
(-1.82074 0.0354383 -3.7915e-20)
(-1.84208 0.0348769 0)
(-1.86326 0.0343217 3.78662e-20)
(-1.88426 0.0337724 -7.56204e-20)
(-1.90509 0.0332291 0)
(-1.92575 0.0326915 -3.7783e-20)
(-1.94623 0.03216 0)
(-1.96654 0.031634 1.13105e-19)
(-1.98668 0.0311139 0)
(-2.00664 0.0305992 -1.12899e-19)
(-2.02643 0.0300903 -3.76136e-20)
(-2.04604 0.0295867 3.75233e-20)
(-2.06547 0.0290886 7.49667e-20)
(-2.08473 0.0285957 -7.4883e-20)
(-2.10381 0.0281082 0)
(-2.12272 0.0276257 0)
(-2.14144 0.0271484 0)
(-2.15999 0.0266761 2.23704e-19)
(-2.17836 0.0262087 7.44919e-20)
(-2.19655 0.0257462 -7.43809e-20)
(-2.21456 0.0252885 0)
(-2.23239 0.0248356 -7.40612e-20)
(-2.25004 0.0243874 7.40206e-20)
(-2.26751 0.0239438 7.3891e-20)
(-2.28479 0.023505 0)
(-2.3019 0.0230707 0)
(-2.31882 0.0226411 0)
(-2.33555 0.022216 7.33228e-20)
(-2.3521 0.0217957 0)
(-2.36846 0.0213798 -1.45944e-19)
(-2.38464 0.0209687 -2.18454e-19)
(-2.40063 0.0205621 1.45271e-19)
(-2.41644 0.0201605 0)
(-2.43205 0.0197637 7.2244e-20)
(-2.44748 0.0193722 0)
(-2.46272 0.0189857 1.43786e-19)
(-2.47778 0.0186048 -7.16618e-20)
(-2.49265 0.0182293 -7.14551e-20)
(-2.50733 0.0178599 0)
(-2.52183 0.0174963 -2.13179e-19)
(-2.53615 0.0171395 1.41646e-19)
(-2.55029 0.0167893 7.06161e-20)
(-2.56425 0.0164465 0)
(-2.57803 0.0161114 7.01262e-20)
(-2.59165 0.015785 2.09561e-19)
(-2.60509 0.0154676 0)
(-2.61838 0.0151605 1.38628e-19)
(-2.63151 0.0148638 1.38074e-19)
(-2.6445 0.0145791 1.37507e-19)
(-2.65735 0.0143069 0)
(-2.67007 0.0140491 0)
(-2.68267 0.0138066 0)
(-2.69518 0.0135816 -6.75207e-20)
(-2.7076 0.0133751 -6.72455e-20)
(-2.71994 0.0131896 0)
(-2.73225 0.0130264 -1.33116e-19)
(-2.74452 0.0128884 -1.3243e-19)
(-2.7568 0.0127771 0)
(-2.76911 0.0126959 -1.31062e-19)
(-2.78149 0.0126465 -2.60571e-19)
(-2.79396 0.0126327 1.29594e-19)
(-2.80657 0.0126561 1.28737e-19)
(-2.81937 0.0127209 0)
(-2.8324 0.0128286 0)
(-2.84572 0.0129836 0)
(-2.85938 0.0131878 1.25719e-19)
(-2.87343 0.0134447 -1.24788e-19)
(-2.88795 0.0137559 -2.48076e-19)
(-2.90301 0.0141237 1.23289e-19)
(-2.91868 0.0145494 -1.22321e-19)
(-2.93503 0.0150344 -1.21647e-19)
(-2.95215 0.0155795 0)
(-2.9701 0.0161849 0)
(-2.98898 0.01685 1.19002e-19)
(-3.00886 0.0175726 0)
(-3.02982 0.01835 0)
(-3.05193 0.0191774 -2.33315e-19)
(-3.07525 0.0200491 0)
(-3.09985 0.0209571 -1.1497e-19)
(-3.12578 0.021892 1.14424e-19)
(-3.15306 0.0228421 0)
(-3.18171 0.0237942 -1.12691e-19)
(-3.21174 0.0247323 0)
(-3.24311 0.0256389 0)
(-3.27577 0.0264939 1.10776e-19)
(-3.30963 0.0272757 -2.19913e-19)
(-3.34457 0.0279605 1.09377e-19)
(-3.38044 0.028523 0)
(-3.41704 0.0289363 0)
(-3.45413 0.0291721 -1.07044e-19)
(-3.49141 0.0292007 0)
(-3.52856 0.0289919 -1.05536e-19)
(-3.56518 0.0285157 0)
(-3.60082 0.0277403 0)
(-3.63498 0.0266283 0)
(-3.66707 0.0251347 -1.01831e-19)
(-3.69647 0.0232136 0)
(-3.72244 0.0208149 9.91993e-20)
(-3.7441 0.0178435 0)
(-3.76058 0.0141143 0)
(-3.77125 0.00946443 -1.87781e-19)
(-3.77543 0.00397045 1.82884e-19)
(-3.77137 -0.00244117 0)
(-3.7563 -0.0111536 0)
(-3.73145 -0.022977 0)
(-3.68922 -0.0338214 -4.58754e-19)
(-3.6029 -0.0495234 0)
(-3.48524 -0.129944 2.41333e-19)
(-0.0204121 0.108761 6.43405e-23)
(-0.0312522 0.111216 7.8879e-20)
(-0.0544133 0.11337 0)
(-0.0782853 0.11521 -7.88008e-20)
(-0.102007 0.11678 0)
(-0.125998 0.118112 0)
(-0.150414 0.119228 -5.14058e-23)
(-0.17522 0.120152 3.92166e-20)
(-0.20037 0.120907 3.92245e-20)
(-0.225836 0.121512 3.91265e-20)
(-0.251592 0.121983 0)
(-0.277616 0.122333 0)
(-0.303885 0.122575 -3.90366e-20)
(-0.330379 0.122716 -7.79759e-20)
(-0.357077 0.122764 7.78782e-20)
(-0.383959 0.122722 0)
(-0.411007 0.122595 7.76834e-20)
(-0.438202 0.122386 -3.87391e-20)
(-0.465526 0.122097 0)
(-0.492961 0.12173 7.73984e-20)
(-0.52049 0.121288 3.85986e-20)
(-0.548095 0.120772 -7.72169e-20)
(-0.57576 0.120185 -3.851e-20)
(-0.603468 0.11953 0)
(-0.631205 0.11881 7.69625e-20)
(-0.658953 0.118028 7.68832e-20)
(-0.6867 0.117188 0)
(-0.714431 0.116293 7.67336e-20)
(-0.742132 0.115348 0)
(-0.769792 0.114355 7.65964e-20)
(-0.797399 0.113319 3.82135e-20)
(-0.82494 0.112244 0)
(-0.852407 0.111134 0)
(-0.87979 0.109991 0)
(-0.907079 0.108821 0)
(-0.934267 0.107625 0)
(-0.961345 0.106408 0)
(-0.988308 0.105173 7.61726e-20)
(-1.01515 0.103922 -1.1415e-19)
(-1.04186 0.102658 0)
(-1.06844 0.101383 0)
(-1.09488 0.100101 0)
(-1.12118 0.0988128 -9.16127e-23)
(-1.14733 0.0975208 7.58786e-20)
(-1.17333 0.0962268 1.51796e-19)
(-1.19918 0.0949324 -1.51747e-19)
(-1.22487 0.0936393 -7.58939e-20)
(-1.2504 0.0923488 7.57876e-20)
(-1.27577 0.0910621 8.28369e-23)
(-1.30099 0.0897804 7.58315e-20)
(-1.32603 0.0885048 0)
(-1.35091 0.087236 7.57948e-20)
(-1.37562 0.085975 7.68813e-23)
(-1.40017 0.0847224 0)
(-1.42455 0.0834788 0)
(-1.44875 0.0822448 -7.57275e-20)
(-1.47279 0.0810209 0)
(-1.49665 0.0798074 0)
(-1.52034 0.0786046 7.57457e-20)
(-1.54386 0.0774129 1.5132e-19)
(-1.5672 0.0762326 -7.55769e-20)
(-1.59038 0.0750636 0)
(-1.61337 0.0739063 7.55414e-20)
(-1.6362 0.0727607 0)
(-1.65885 0.071627 7.56219e-20)
(-1.68133 0.070505 7.54801e-20)
(-1.70363 0.069395 -1.51029e-19)
(-1.72576 0.0682968 -7.55446e-20)
(-1.74771 0.0672106 0)
(-1.76949 0.0661361 1.50862e-19)
(-1.79109 0.0650734 0)
(-1.81252 0.0640224 2.26045e-19)
(-1.83377 0.0629831 1.50659e-19)
(-1.85485 0.0619553 1.50582e-19)
(-1.87575 0.060939 -1.505e-19)
(-1.89648 0.0599339 2.25573e-19)
(-1.91703 0.0589401 0)
(-1.93741 0.0579575 0)
(-1.9576 0.0569858 -1.50117e-19)
(-1.97763 0.0560249 -2.24967e-19)
(-1.99747 0.0550748 0)
(-2.01714 0.0541352 7.48418e-20)
(-2.03664 0.053206 0)
(-2.05595 0.0522871 -2.24206e-19)
(-2.07509 0.0513784 7.6262e-23)
(-2.09404 0.0504796 -7.4475e-23)
(-2.11282 0.0495906 1.49036e-19)
(-2.13142 0.0487113 0)
(-2.14984 0.0478416 -1.48689e-19)
(-2.16808 0.0469812 6.76896e-23)
(-2.18614 0.04613 0)
(-2.20402 0.045288 0)
(-2.22171 0.0444549 0)
(-2.23923 0.0436307 1.47607e-19)
(-2.25656 0.0428154 0)
(-2.2737 0.0420088 0)
(-2.29066 0.0412109 0)
(-2.30744 0.0404216 0)
(-2.32403 0.039641 0)
(-2.34043 0.0388689 1.46129e-19)
(-2.35665 0.0381055 0)
(-2.37267 0.0373506 1.45483e-19)
(-2.38851 0.0366044 1.4517e-19)
(-2.40416 0.0358671 -1.44845e-19)
(-2.41962 0.0351388 0)
(-2.43489 0.0344198 -1.44161e-19)
(-2.44997 0.0337103 0)
(-2.46486 0.0330106 -1.43427e-19)
(-2.47956 0.0323209 1.43042e-19)
(-2.49407 0.0316418 4.28013e-19)
(-2.50839 0.0309735 0)
(-2.52253 0.0303167 4.255e-19)
(-2.53647 0.0296721 1.41444e-19)
(-2.55023 0.0290402 0)
(-2.56381 0.028422 2.80974e-19)
(-2.57721 0.0278184 2.80012e-19)
(-2.59043 0.0272306 -4.18499e-19)
(-2.60348 0.0266601 0)
(-2.61636 0.0261081 -1.38446e-19)
(-2.62908 0.025576 -1.37908e-19)
(-2.64165 0.0250656 -4.12122e-19)
(-2.65407 0.0245789 0)
(-2.66635 0.0241184 0)
(-2.67851 0.0236868 0)
(-2.69056 0.0232869 -1.35039e-19)
(-2.70251 0.0229215 0)
(-2.71437 0.022594 0)
(-2.72617 0.0223079 1.33063e-19)
(-2.73793 0.0220672 1.32389e-19)
(-2.74968 0.0218758 0)
(-2.76144 0.0217383 0)
(-2.77324 0.0216591 2.60561e-19)
(-2.78511 0.0216434 0)
(-2.7971 0.0216956 -2.57612e-19)
(-2.80925 0.0218211 -2.56111e-19)
(-2.82159 0.0220244 0)
(-2.83418 0.0223111 0)
(-2.84708 0.0226857 2.51424e-19)
(-2.86033 0.0231527 4.10951e-24)
(-2.874 0.0237155 8.15418e-24)
(-2.88816 0.0243769 0)
(-2.90287 0.0251392 4.89893e-19)
(-2.91821 0.0260043 0)
(-2.93424 0.026973 0)
(-2.95104 0.0280445 0)
(-2.96868 0.0292167 -2.38396e-19)
(-2.98724 0.030485 0)
(-3.00678 0.0318429 4.70256e-19)
(-3.02736 0.0332811 2.33563e-19)
(-3.04906 0.0347876 0)
(-3.0719 0.0363472 2.30439e-19)
(-3.09594 0.0379416 0)
(-3.12119 0.0395488 0)
(-3.14767 0.0411435 6.77871e-19)
(-3.17535 0.0426963 -4.49064e-19)
(-3.2042 0.0441745 0)
(-3.23415 0.0455417 -4.43568e-19)
(-3.2651 0.0467583 2.2042e-19)
(-3.29693 0.0477814 0)
(-3.32947 0.0485656 0)
(-3.36252 0.0490631 0)
(-3.39582 0.0492237 6.45476e-19)
(-3.42908 0.0489954 0)
(-3.46197 0.0483252 2.12255e-19)
(-3.4941 0.047159 0)
(-3.52504 0.045441 0)
(-3.55428 0.0431079 0)
(-3.58129 0.0400862 0)
(-3.6055 0.0362987 0)
(-3.62625 0.0316713 0)
(-3.64284 0.0261083 3.95706e-19)
(-3.65455 0.0194467 0)
(-3.66067 0.0114968 1.90322e-19)
(-3.66001 0.00211745 -5.56584e-19)
(-3.65058 -0.00924098 0)
(-3.63124 -0.0243181 0)
(-3.60257 -0.0443772 3.28927e-19)
(-3.55813 -0.0661042 3.0862e-19)
(-3.48294 -0.093915 -2.83571e-19)
(-3.39279 -0.172494 -2.41144e-19)
(-0.0213937 0.155469 -1.94086e-19)
(-0.032531 0.158721 -1.17763e-19)
(-0.0564532 0.161534 -7.85131e-20)
(-0.0810784 0.163955 -3.92438e-20)
(-0.105544 0.16603 0)
(-0.130274 0.167791 7.82211e-20)
(-0.15542 0.169265 -3.90993e-20)
(-0.180936 0.170482 0)
(-0.206771 0.171465 -3.89208e-20)
(-0.232893 0.17224 0)
(-0.259273 0.172826 7.77063e-20)
(-0.285887 0.173241 0)
(-0.312708 0.173499 3.87059e-20)
(-0.339715 0.173612 7.73042e-20)
(-0.366885 0.173589 -7.71976e-20)
(-0.394197 0.173437 0)
(-0.421631 0.173162 -7.69887e-20)
(-0.449167 0.172769 0)
(-0.476786 0.172262 0)
(-0.504471 0.171645 -7.66921e-20)
(-0.532203 0.170921 0)
(-0.559967 0.170095 -8.90673e-23)
(-0.587745 0.16917 0)
(-0.615522 0.168151 0)
(-0.643283 0.167043 9.06825e-23)
(-0.671015 0.165851 -7.61849e-20)
(-0.698703 0.16458 -7.62047e-20)
(-0.726336 0.163236 -7.6046e-20)
(-0.753902 0.161824 0)
(-0.781389 0.16035 -1.51937e-19)
(-0.808788 0.15882 0)
(-0.83609 0.157239 -7.59063e-20)
(-0.863285 0.155612 0)
(-0.890366 0.153945 0)
(-0.917325 0.152242 7.57717e-20)
(-0.944157 0.150509 0)
(-0.970854 0.148749 -7.56991e-20)
(-0.997412 0.146967 8.7778e-23)
(-1.02383 0.145167 1.51191e-19)
(-1.05009 0.143352 -1.51227e-19)
(-1.0762 0.141526 0)
(-1.10216 0.139692 0)
(-1.12796 0.137853 -7.56349e-20)
(-1.15359 0.136011 0)
(-1.17906 0.13417 -7.544e-20)
(-1.20437 0.13233 7.54288e-20)
(-1.2295 0.130495 7.54194e-20)
(-1.25447 0.128666 0)
(-1.27926 0.126844 -7.54048e-20)
(-1.30388 0.125031 -7.53993e-20)
(-1.32833 0.123229 1.50939e-19)
(-1.35261 0.121438 -7.53911e-20)
(-1.37671 0.11966 -7.53881e-20)
(-1.40063 0.117894 0)
(-1.42438 0.116143 0)
(-1.44796 0.114407 7.53812e-20)
(-1.47135 0.112686 0)
(-1.49457 0.11098 0)
(-1.51761 0.109291 -1.50749e-19)
(-1.54048 0.107618 -1.50743e-19)
(-1.56317 0.105962 0)
(-1.58568 0.104323 0)
(-1.60802 0.1027 0)