/*--------------------------------*- C++ -*----------------------------------*\
| =========                 |                                                 |
| \\      /  F ield         | OpenFOAM: The Open Source CFD Toolbox           |
|  \\    /   O peration     | Version:  2406                                  |
|   \\  /    A nd           | Website:  www.openfoam.com                      |
|    \\/     M anipulation  |                                                 |
\*---------------------------------------------------------------------------*/
FoamFile
{
    version     2.0;
    format      ascii;
    arch        "LSB;label=32;scalar=64";
    class       volScalarField;
    location    "23";
    object      p;
}
// * * * * * * * * * * * * * * * * * * * * * * * * * * * * * * * * * * * * * //

dimensions      [0 2 -2 0 0 0 0];

internalField   nonuniform List<scalar> 
1700
(
5.64366
4.80002
4.35995
4.16018
4.02709
3.9192
3.82211
3.72607
3.62615
3.47602
4.86047
4.546
4.30913
4.15429
4.03225
3.92551
3.82621
3.72767
3.62255
3.49407
4.48413
4.39541
4.27127
4.1501
4.03892
3.93554
3.83718
3.74085
3.64397
3.54515
4.3433
4.31777
4.24292
4.1456
4.04562
3.94825
3.85441
3.76412
3.67758
3.59643
4.28869
4.28274
4.229
4.14518
4.05293
3.96083
3.87197
3.7878
3.70932
3.63806
4.29196
4.28588
4.23251
4.14978
4.05942
3.97013
3.88511
3.80581
3.73295
3.6673
4.3527
4.32692
4.25327
4.15912
4.06445
3.97494
3.89202
3.81599
3.74666
3.68402
4.49836
4.40945
4.28729
4.17072
4.06702
3.9748
3.89241
3.81813
3.75061
3.68919
4.87734
4.56265
4.32769
4.17729
4.06266
3.96744
3.88545
3.81233
3.74555
3.68421
5.66084
4.81653
4.37743
4.18077
4.05352
3.95548
3.87434
3.80232
3.73583
3.67399
3.32986
3.33074
3.33589
3.34531
3.35722
3.36983
3.38169
3.39172
3.39921
3.40378
3.40531
3.40388
3.39972
3.39312
3.3844
3.3739
3.36191
3.34868
3.33441
3.31922
3.30317
3.28624
3.26834
3.24924
3.22865
3.2061
3.18101
3.15258
3.11986
3.08168
3.03676
2.98382
2.92176
2.84999
2.76879
3.32919
3.33
3.33471
3.34313
3.35376
3.36508
3.37583
3.385
3.39194
3.39625
3.39776
3.39652
3.39269
3.3865
3.37824
3.36819
3.35661
3.34371
3.32966
3.31457
3.29847
3.28132
3.26301
3.2433
3.22189
3.19832
3.17201
3.14219
3.10798
3.0683
3.02201
2.96799
2.90532
2.8336
2.75323
3.32398
3.32536
3.33048
3.33889
3.34918
3.36002
3.37025
3.379
3.38563
3.38979
3.3913
3.39019
3.38658
3.38069
3.37276
3.36306
3.35179
3.33917
3.32533
3.31037
3.29428
3.27704
3.25849
3.23843
3.21652
3.19232
3.16524
3.13457
3.0994
3.05872
3.01138
2.95632
2.89261
2.81992
2.73875
3.31299
3.31613
3.32309
3.33294
3.34421
3.35562
3.36612
3.37493
3.38152
3.38559
3.38702
3.38586
3.38226
3.37644
3.36863
3.35909
3.34802
3.33561
3.32198
3.30722
3.29132
3.27424
3.25582
3.23586
3.21403
3.18987
3.16281
3.13209
3.09679
3.05578
3.0078
2.95155
2.88593
2.81042
2.72569
3.29585
3.3023
3.31281
3.32554
3.33893
3.35174
3.36306
3.37224
3.3789
3.38286
3.38412
3.38277
3.37903
3.37312
3.36531
3.35583
3.34491
3.33271
3.31937
3.30493
3.28943
3.27278
3.25486
3.23545
3.21423
3.19072
3.16436
3.1343
3.09953
3.05872
3.01031
2.95253
2.88383
2.80321
2.71159
3.2717
3.28386
3.30017
3.31737
3.33386
3.34866
3.36107
3.3707
3.37739
3.38114
3.38207
3.38039
3.37636
3.37026
3.36236
3.35292
3.34215
3.33023
3.31727
3.30334
3.28845
3.27253
3.25546
3.23703
3.21691
3.19466
3.16963
3.14095
3.10741
3.06745
3.01899
2.95966
2.88687
2.79893
2.69634
3.2392
3.26062
3.28605
3.30949
3.32985
3.34692
3.36045
3.3704
3.37691
3.38022
3.38062
3.37844
3.37399
3.36761
3.35958
3.35017
3.3396
3.32804
3.3156
3.30235
3.28829
3.27338
3.25749
3.24044
3.22192
3.20147
3.17845
3.15192
3.12052
3.08237
3.03484
2.97455
2.89757
2.80049
2.68281
3.19059
3.23042
3.27143
3.30325
3.328
3.34727
3.36162
3.37151
3.37747
3.38002
3.37965
3.37678
3.37179
3.36505
3.35687
3.34752
3.33721
3.3261
3.3143
3.30188
3.28886
3.27518
3.26077
3.24544
3.22892
3.2108
3.19045
3.16691
3.13879
3.1039
3.0591
2.99968
2.91968
2.8126
2.67521
3.09601
3.18957
3.25885
3.30113
3.32999
3.35075
3.36515
3.37428
3.37914
3.38053
3.37909
3.37533
3.36969
3.36255
3.35422
3.34495
3.33495
3.32438
3.31333
3.30187
3.29002
3.27776
3.26501
3.25164
3.23743
3.22204
3.20493
3.18526
3.16172
3.13219
3.09319
3.03903
2.96108
2.84714
2.68324
2.99266
3.16968
3.26454
3.31114
3.33981
3.35926
3.37186
3.37903
3.382
3.38171
3.37888
3.37406
3.36767
3.36009
3.35161
3.34247
3.33284
3.32286
3.31263
3.3022
3.29159
3.28082
3.26982
3.25852
3.24677
3.23433
3.22082
3.20568
3.18796
3.16619
3.13777
3.09817
3.04053
2.95276
2.78963
3.23512
3.26626
3.31633
3.34357
3.36135
3.37412
3.3821
3.38576
3.38595
3.38347
3.37896
3.37291
3.36571
3.35768
3.34906
3.34007
3.33084
3.32149
3.31209
3.3027
3.29334
3.28402
3.27474
3.26546
3.2561
3.24655
3.23663
3.22609
3.21458
3.20174
3.18718
3.17116
3.15817
3.16915
3.25396
3.36745
3.35439
3.37018
3.38053
3.3874
3.39225
3.39438
3.39365
3.3905
3.38549
3.37912
3.37177
3.36373
3.35526
3.34654
3.33772
3.3289
3.32017
3.31158
3.30317
3.29497
3.28701
3.27929
3.27182
3.26459
3.25759
3.25078
3.24413
3.23769
3.23166
3.22658
3.22423
3.23099
3.26432
3.333
3.46049
3.42895
3.42165
3.41781
3.41449
3.41124
3.40711
3.40164
3.39494
3.38731
3.37906
3.37043
3.36161
3.35275
3.34396
3.33534
3.32693
3.31878
3.31093
3.3034
3.29622
3.28941
3.28301
3.27705
3.27156
3.26658
3.26217
3.2584
3.25547
3.25371
3.2538
3.25733
3.26864
3.29593
3.33201
3.52862
3.48885
3.46702
3.45177
3.4394
3.42866
3.41856
3.40853
3.39844
3.38836
3.37839
3.36864
3.35916
3.35001
3.34122
3.33281
3.32479
3.31718
3.30997
3.30318
3.29683
3.29095
3.28557
3.28076
3.27656
3.27304
3.27029
3.26843
3.26767
3.26833
3.27096
3.27671
3.28824
3.30966
3.33538
3.57778
3.53401
3.50307
3.47915
3.45933
3.44228
3.42709
3.41315
3.40018
3.38805
3.37671
3.36609
3.35616
3.34686
3.33816
3.33
3.32236
3.31521
3.30854
3.30234
3.29662
3.29142
3.28678
3.28275
3.2794
3.27682
3.27509
3.27436
3.27479
3.27665
3.28034
3.28661
3.29703
3.31391
3.33338
3.61046
3.56444
3.52781
3.49776
3.47236
3.45053
3.43147
3.41458
3.39949
3.38592
3.37366
3.36255
3.35243
3.34317
3.33466
3.3268
3.31953
3.3128
3.30656
3.3008
3.29554
3.29078
3.28659
3.28302
3.28014
3.27805
3.27685
3.27666
3.27764
3.27998
3.28395
3.28996
3.29889
3.31188
3.326
3.62857
3.58103
3.54086
3.50678
3.47764
3.45261
3.43101
3.41228
3.39594
3.38161
3.36899
3.35779
3.34779
3.33878
3.3306
3.32312
3.31624
3.30988
3.30399
3.29856
3.29358
3.28908
3.2851
3.28171
3.27899
3.27705
3.276
3.27597
3.2771
3.27956
3.28348
3.28905
3.2966
3.30645
3.31636
3.63394
3.58517
3.5428
3.50627
3.47495
3.44817
3.42533
3.40584
3.38916
3.37482
3.36241
3.35158
3.34203
3.33352
3.32584
3.31884
3.31239
3.30641
3.30084
3.29564
3.29083
3.28641
3.28245
3.27901
3.27619
3.27411
3.27291
3.27276
3.27382
3.27624
3.28011
3.28544
3.29212
3.2998
3.30661
3.62835
3.57839
3.53455
3.49669
3.4644
3.43712
3.41419
3.39498
3.37884
3.36523
3.35364
3.34367
3.33496
3.32723
3.32026
3.31388
3.30795
3.30238
3.29711
3.29211
3.28736
3.28291
3.27879
3.27509
3.27192
3.26943
3.26781
3.26727
3.26806
3.27038
3.27437
3.27996
3.28669
3.29353
3.29858
3.61715
3.56603
3.52116
3.48262
3.4501
3.42303
3.40069
3.38233
3.36722
3.35471
3.34425
3.33535
3.32763
3.32081
3.31463
3.30891
3.30352
3.29837
3.29339
3.28855
3.28384
3.27929
3.27495
3.2709
3.26729
3.26428
3.26211
3.26106
3.26149
3.26371
3.26798
3.27424
3.28186
3.28923
3.29399
2.67955
2.58474
2.4873
2.38997
2.2949
2.20364
2.11721
2.03631
1.96143
1.89304
2.6656
2.57316
2.47864
2.38446
2.29248
2.20409
2.12028
2.04176
1.96908
1.90273
2.65075
2.55884
2.46592
2.37405
2.28467
2.19885
2.11742
2.04102
1.97025
1.9057
2.63405
2.53996
2.44691
2.35636
2.26894
2.18514
2.10546
2.03038
1.96059
1.89696
2.61223
2.51344
2.41953
2.33041
2.24511
2.16334
2.08496
2.01031
1.94014
1.87595
2.58375
2.47796
2.384
2.2976
2.21542
2.13601
2.05865
1.98316
1.91055
1.84304
2.54837
2.43409
2.34306
2.26201
2.18442
2.10801
2.03134
1.95357
1.87552
1.79983
2.50427
2.38247
2.30086
2.22901
2.15786
2.08551
2.00976
1.92898
1.84228
1.74983
2.43712
2.31776
2.25975
2.20226
2.14007
2.07362
2.00069
1.91898
1.8246
1.70293
2.31659
2.24265
2.22829
2.1851
2.13144
2.0714
2.00224
1.92271
1.83316
1.69002
1.83163
1.77761
1.73109
1.69175
1.65898
1.63196
1.60984
1.59177
1.57697
1.56475
1.55454
1.54587
1.53835
1.53168
1.52562
1.52001
1.51471
1.50962
1.50469
1.49989
1.49521
1.49068
1.48636
1.48233
1.47872
1.47572
1.47355
1.4725
1.47292
1.47514
1.4794
1.48565
1.49327
1.50063
1.50538
1.84315
1.79069
1.74531
1.70661
1.67395
1.64658
1.62374
1.6047
1.58878
1.57539
1.56401
1.55422
1.54568
1.53809
1.53125
1.52496
1.51911
1.51361
1.50839
1.50342
1.49871
1.49428
1.49018
1.48649
1.48333
1.48085
1.47923
1.4787
1.47948
1.4818
1.48579
1.49136
1.49809
1.50493
1.50997
1.84795
1.7974
1.75386
1.71665
1.68497
1.65806
1.63524
1.61585
1.59931
1.58513
1.57288
1.5622
1.55279
1.5444
1.53682
1.52991
1.52354
1.51762
1.51209
1.50694
1.50216
1.49777
1.49382
1.4904
1.48759
1.48551
1.48432
1.48417
1.48523
1.48764
1.49151
1.49684
1.50351
1.51118
1.51799
1.84054
1.79225
1.75156
1.71715
1.68784
1.66276
1.64119
1.62252
1.60629
1.59209
1.57958
1.56851
1.55861
1.5497
1.54161
1.53421
1.52739
1.52109
1.51525
1.50986
1.50491
1.50043
1.49647
1.49309
1.49038
1.48845
1.4874
1.48737
1.48851
1.49096
1.49488
1.50044
1.50799
1.51783
1.52772
1.81987
1.77426
1.73786
1.70793
1.68263
1.66086
1.64187
1.62506
1.61005
1.59656
1.5844
1.57337
1.56333
1.55415
1.54571
1.53792
1.53071
1.52402
1.51782
1.5121
1.50686
1.50213
1.49796
1.4944
1.49153
1.48945
1.48825
1.48807
1.48905
1.49139
1.49535
1.50136
1.51029
1.52324
1.53735
1.78509
1.74274
1.71264
1.68923
1.66971
1.65283
1.63774
1.62388
1.61097
1.5989
1.58761
1.57705
1.56717
1.55793
1.54927
1.54116
1.53357
1.52646
1.51982
1.51365
1.50796
1.50278
1.49815
1.49413
1.49079
1.48822
1.4865
1.48577
1.4862
1.48806
1.49175
1.49801
1.5084
1.52528
1.54473
1.73531
1.69743
1.67668
1.66208
1.65008
1.63954
1.62954
1.61956
1.6095
1.59943
1.58948
1.57975
1.57029
1.56117
1.55241
1.54403
1.53604
1.52845
1.52127
1.5145
1.50817
1.50231
1.49695
1.49215
1.48796
1.48445
1.4817
1.47985
1.47909
1.47975
1.4824
1.48812
1.49966
1.52106
1.54674
1.66869
1.63868
1.63214
1.62876
1.62572
1.62259
1.61849
1.61301
1.60628
1.59863
1.59036
1.58171
1.57288
1.56402
1.55524
1.54662
1.53823
1.5301
1.52226
1.51475
1.50758
1.50079
1.4944
1.48845
1.48297
1.478
1.47359
1.46984
1.46691
1.46516
1.46526
1.4688
1.4801
1.50734
1.54336
1.57923
1.5664
1.58206
1.59244
1.59933
1.60414
1.60619
1.60537
1.60214
1.59706
1.59062
1.58322
1.57514
1.56664
1.5579
1.54907
1.54025
1.53153
1.52294
1.51454
1.50635
1.49839
1.49068
1.48322
1.47601
1.46901
1.46221
1.45558
1.44915
1.44313
1.43807
1.43573
1.44248
1.47578
1.54428
1.45149
1.48089
1.52973
1.55647
1.57397
1.58653
1.59432
1.59782
1.59787
1.59527
1.59066
1.58452
1.57725
1.56916
1.56051
1.55149
1.54224
1.53288
1.52348
1.51408
1.50473
1.49541
1.48614
1.47686
1.46751
1.45797
1.44807
1.43754
1.42606
1.41324
1.39872
1.38275
1.36985
1.38076
1.46534
1.21251
1.38583
1.47892
1.52474
1.55295
1.57207
1.5844
1.59136
1.59415
1.59371
1.59075
1.58581
1.57933
1.57168
1.56314
1.55395
1.54429
1.53429
1.52404
1.5136
1.50299
1.49221
1.48121
1.46992
1.45817
1.44574
1.43225
1.41712
1.39944
1.37772
1.34936
1.30991
1.25249
1.16513
1.00282
1.31281
1.4049
1.4732
1.51489
1.54334
1.56378
1.57791
1.58681
1.59147
1.59269
1.59109
1.58721
1.58146
1.57422
1.56581
1.55649
1.54645
1.53584
1.52476
1.51328
1.50142
1.48915
1.47639
1.46302
1.44882
1.43344
1.41634
1.39668
1.37317
1.34369
1.30478
1.25076
1.17313
1.05975
0.896756
1.40544
1.44491
1.4855
1.51697
1.5414
1.5604
1.57451
1.58417
1.58993
1.5923
1.59177
1.58875
1.58364
1.5768
1.56853
1.55911
1.54874
1.53758
1.52575
1.5133
1.50026
1.48657
1.47214
1.45681
1.44028
1.42216
1.40181
1.37829
1.35018
1.31534
1.27059
1.21131
1.13154
1.0249
0.888284
1.45325
1.4746
1.49987
1.52309
1.54324
1.56008
1.5734
1.58314
1.58946
1.59258
1.59282
1.59049
1.58591
1.57941
1.57128
1.56179
1.55116
1.53954
1.52706
1.51377
1.49968
1.48475
1.46885
1.45178
1.43325
1.41279
1.38977
1.36323
1.33183
1.29369
1.24619
1.18594
1.10908
1.01222
0.894948
1.48533
1.49752
1.51377
1.53086
1.5472
1.56181
1.57404
1.58349
1.58999
1.59356
1.59433
1.59249
1.58832
1.5821
1.5741
1.56457
1.55373
1.54174
1.52874
1.51476
1.49984
1.48389
1.4668
1.44835
1.42822
1.40594
1.3809
1.35219
1.31864
1.27864
1.23016
1.17076
1.09795
1.00995
0.907394
1.50924
1.51576
1.52627
1.53894
1.55222
1.56488
1.57604
1.58505
1.59153
1.59532
1.59641
1.59491
1.59103
1.58499
1.57707
1.5675
1.5565
1.54423
1.53083
1.51635
1.50081
1.48413
1.46619
1.44675
1.4255
1.40198
1.37558
1.34549
1.31067
1.26979
1.22129
1.16339
1.09448
1.01364
0.921621
1.52627
1.52949
1.53646
1.54628
1.55746
1.56875
1.57911
1.58776
1.59418
1.59808
1.59934
1.59803
1.59428
1.58833
1.58041
1.57077
1.55961
1.54713
1.53344
1.51863
1.50269
1.48558
1.46713
1.44715
1.42528
1.4011
1.37399
1.34323
1.30786
1.26677
1.21865
1.16221
1.09629
1.02037
0.935016
1.53722
1.53866
1.54381
1.55219
1.56242
1.57314
1.58324
1.59183
1.5983
1.60228
1.60363
1.60235
1.5986
1.59258
1.58454
1.57473
1.56339
1.55069
1.53679
1.52177
1.50565
1.48836
1.46979
1.4497
1.42776
1.40352
1.37642
1.34568
1.31045
1.26966
1.22219
1.16688
1.10285
1.02965
0.947739
1.54247
1.54332
1.54805
1.55645
1.56701
1.57823
1.58883
1.59785
1.60461
1.60874
1.61008
1.60868
1.6047
1.59838
1.59
1.57985
1.56818
1.55521
1.54111
1.52597
1.50982
1.49264
1.4743
1.45457
1.43313
1.40954
1.38318
1.35333
1.31905
1.27928
1.23285
1.17861
1.11563
1.04344
0.962345
1.54319
1.54411
1.54929
1.5587
1.57053
1.58302
1.59473
1.60459
1.6119
1.61628
1.61763
1.61604
1.61172
1.60498
1.59614
1.58554
1.57346
1.56016
1.54583
1.53059
1.51451
1.49755
1.47962
1.4605
1.43989
1.41732
1.3922
1.36374
1.33097
1.29272
1.24769
1.19458
1.13226
1.06011
0.97833
0.531913
0.459162
0.446217
0.405335
0.355305
0.301174
0.241975
0.178003
0.110342
0.0388737
0.65231
0.534694
0.478725
0.424189
0.366461
0.306799
0.244309
0.178673
0.109748
0.0381533
0.718675
0.598568
0.519142
0.450253
0.383396
0.317158
0.250172
0.181625
0.11071
0.0381692
0.761248
0.648093
0.558517
0.47946
0.404546
0.331704
0.25951
0.187008
0.113046
0.0384177
0.794889
0.689321
0.595666
0.509648
0.427838
0.348642
0.270942
0.193907
0.116229
0.0387957
0.821811
0.722364
0.627594
0.537173
0.449987
0.365297
0.282508
0.201056
0.119639
0.0392468
0.842482
0.747123
0.652291
0.559197
0.468167
0.379237
0.292344
0.207211
0.122616
0.0396592
0.858645
0.765171
0.67
0.574968
0.481137
0.389144
0.299271
0.211477
0.124607
0.039923
0.87367
0.779692
0.682977
0.585678
0.489343
0.394928
0.302935
0.213373
0.125246
0.0399154
0.888214
0.792116
0.692822
0.592842
0.494047
0.397603
0.304057
0.213392
0.125071
0.0397698
)
;

boundaryField
{
    inlet
    {
        type            zeroGradient;
    }
    outlet
    {
        type            fixedValue;
        value           uniform 0;
    }
    upperWall
    {
        type            zeroGradient;
    }
    lowerWall
    {
        type            zeroGradient;
    }
    frontAndBack
    {
        type            empty;
    }
}


// ************************************************************************* //
