/*--------------------------------*- C++ -*----------------------------------*\
| =========                 |                                                 |
| \\      /  F ield         | OpenFOAM: The Open Source CFD Toolbox           |
|  \\    /   O peration     | Version:  2406                                  |
|   \\  /    A nd           | Website:  www.openfoam.com                      |
|    \\/     M anipulation  |                                                 |
\*---------------------------------------------------------------------------*/
FoamFile
{
    version     2.0;
    format      ascii;
    arch        "LSB;label=32;scalar=64";
    class       surfaceScalarField;
    location    "23";
    object      phi;
}
// * * * * * * * * * * * * * * * * * * * * * * * * * * * * * * * * * * * * * //

dimensions      [0 3 -1 0 0 0 0];

oriented        oriented;

internalField   nonuniform List<scalar> 
3270
(
0.0520821
0.0146179
0.0385091
0.0135731
0.0303045
0.0082046
0.0257329
0.00457166
0.0233888
0.002344
0.0224918
0.000896933
0.0226855
-0.000193702
0.0240269
-0.00134146
0.0273251
-0.00329823
-0.00879466
0.0361197
0.0700843
0.0112337
0.0673497
0.0163078
0.062761
0.0127933
0.0590256
0.00830706
0.0567421
0.00462732
0.0558318
0.00180715
0.0561457
-0.000507757
0.0576746
-0.00287041
0.0604982
-0.00612189
-0.0116312
0.0633347
0.0710898
0.00684393
0.0752603
0.0121372
0.0770011
0.0110524
0.0774549
0.00785318
0.077598
0.00448417
0.0779228
0.00148221
0.0786388
-0.00122375
0.0797755
-0.00400723
0.0810671
-0.00741353
-0.0120153
0.0814511
0.0704495
0.00309437
0.0766502
0.00593645
0.0819981
0.00570439
0.0858461
0.00400506
0.0884525
0.00187774
0.0902159
-0.000281324
0.0914474
-0.00245522
0.0922723
-0.00483216
0.0925367
-0.00767793
-0.0111781
0.0916995
0.0699945
-0.000200225
0.0765048
-0.000573938
0.0831715
-0.000962381
0.0885936
-0.00141709
0.092469
-0.0019977
0.0949663
-0.00277864
0.0963611
-0.00384995
0.0968384
-0.00530944
0.0963957
-0.00723516
-0.00961319
0.0948308
0.069967
-0.00346729
0.0763948
-0.0070018
0.0829173
-0.00748498
0.0881222
-0.00662197
0.0916933
-0.00556883
0.093785
-0.00487037
0.0946648
-0.00472972
0.0945319
-0.00517641
0.0934514
-0.00615463
-0.00753807
0.0913764
0.0703693
-0.00713665
0.0763347
-0.0129672
0.0812765
-0.0124269
0.0845183
-0.00986389
0.0862783
-0.00732887
0.0869067
-0.00549884
0.086672
-0.00449503
0.085711
-0.00421537
0.0840479
-0.0044915
-0.00513872
0.0816485
0.0709718
-0.0114085
0.0748054
-0.0168008
0.075977
-0.0135986
0.0755921
-0.00947911
0.0745625
-0.00629937
0.0732848
-0.00422127
0.0718507
-0.00306102
0.0702019
-0.00256662
0.0682272
-0.00251678
-0.00273576
0.0658242
0.0699659
-0.0146743
0.0669026
-0.0137375
0.0617722
-0.0084683
0.0572475
-0.00495452
0.0538486
-0.00290056
0.0513604
-0.00173325
0.0494245
-0.00112515
0.0477153
-0.000857432
0.0459864
-0.000787985
-0.000827297
0.0440779
0.0520257
0.0382882
0.0298199
0.0248653
0.0219647
0.0202315
0.0191063
0.0182489
0.0174609
0.0166336
-0.000131115
0.000131242
-0.000341221
0.000210392
-0.000492921
0.000151967
-0.00051012
1.74256e-05
-0.000370192
-0.000139734
-8.35519e-05
-0.000286472
0.000321824
-0.000405225
0.000811346
-0.000489387
0.00135074
-0.000539268
0.00190985
-0.000559001
0.00246448
-0.000554526
0.0029968
-0.000532236
0.00349512
-0.000498249
0.00395315
-0.00045798
0.00436919
-0.000416004
0.00474524
-0.000376037
0.00508629
-0.000341042
0.00539963
-0.000313363
0.0056945
-0.000294896
0.0059817
-0.000287251
0.00627355
-0.000291904
0.00658381
-0.000310319
0.00692777
-0.000344026
0.00732232
-0.000394611
0.00778588
-0.000463621
0.00833808
-0.000552249
0.00899887
-0.000660835
0.00978679
-0.000787961
0.0107161
-0.000929283
0.011792
-0.00107595
0.0130053
-0.00121326
0.0143251
-0.00131989
0.0156948
-0.00136961
0.0170312
-0.00133639
-0.00120431
0.0182355
-0.000238305
0.000369823
-0.000561006
0.000533875
-0.000710677
0.00030231
-0.000552824
-0.000139848
-5.06767e-05
-0.00064139
0.000768232
-0.00110495
0.00184169
-0.00147832
0.00309441
-0.00174177
0.00445196
-0.00189653
0.00584881
-0.00195559
0.00723203
-0.00193752
0.00856236
-0.00186238
0.00981374
-0.00174948
0.0109719
-0.00161602
0.0120326
-0.00147669
0.0130003
-0.00134365
0.0138859
-0.0012267
0.0147063
-0.00113379
0.0154827
-0.00107143
0.0162406
-0.00104519
0.0170087
-0.00106014
0.0178194
-0.0011212
0.0187086
-0.00123331
0.0197153
-0.00140144
0.0208816
-0.00163015
0.022252
-0.00192272
0.0238706
-0.00227951
0.0257779
-0.00269538
0.0280046
-0.00315601
0.030562
-0.00363345
0.0334304
-0.00408169
0.036545
-0.00443446
0.0397848
-0.00460937
0.0429713
-0.00452292
-0.00412068
0.0458877
-0.00024661
0.000616769
-0.000491825
0.000779783
-0.000430437
0.000241562
7.2912e-05
-0.000642661
0.00103464
-0.00160267
0.00239863
-0.00246858
0.00407328
-0.00315266
0.0059569
-0.00362513
0.00795312
-0.00389254
0.00997925
-0.00398152
0.0119696
-0.00392772
0.0138762
-0.00376887
0.0156677
-0.00354085
0.0173275
-0.00327567
0.0188515
-0.00300068
0.0202465
-0.00273865
0.021528
-0.00250817
0.0227186
-0.00232444
0.0238472
-0.00220006
0.0249479
-0.00214586
0.0260593
-0.00217171
0.0272251
-0.00228707
0.0284931
-0.00250133
0.0299153
-0.00282377
0.0315479
-0.00326283
0.0334496
-0.00382457
0.0356797
-0.00450972
0.0382934
-0.00530918
0.0413346
-0.00619733
0.0448247
-0.00712368
0.0487467
-0.0080037
0.0530252
-0.00871306
0.0575075
-0.00909167
0.0619546
-0.00896997
-0.00822664
0.0660606
-0.000198109
0.000815085
-0.000229523
0.00081187
0.000214033
-0.000201446
0.00122139
-0.00164957
0.00275189
-0.0031328
0.00470279
-0.00441918
0.00695098
-0.00540061
0.00937648
-0.00605044
0.0118743
-0.00639018
0.0143592
-0.00646624
0.0167664
-0.00633487
0.0190509
-0.00605321
0.0211846
-0.00567452
0.0231548
-0.0052458
0.0249613
-0.00480713
0.0266146
-0.00439184
0.0281338
-0.00402736
0.0295455
-0.0037362
0.0308827
-0.00353723
0.0321836
-0.00344679
0.0334917
-0.0034798
0.0348551
-0.00365059
0.0363271
-0.00397342
0.0379657
-0.00446241
0.0398334
-0.00513066
0.0419969
-0.00598818
0.0445249
-0.00703784
0.0474846
-0.00826901
0.0509349
-0.00964771
0.0549143
-0.0111033
0.0594227
-0.0125122
0.0643934
-0.0136838
0.0696608
-0.0143591
0.0749335
-0.0142427
-0.0130995
0.0798064
-0.000102731
0.000918115
0.000223644
0.0004859
0.00124004
-0.00121746
0.00292566
-0.00333485
0.00514278
-0.00534966
0.00772677
-0.00700294
0.0105246
-0.00819829
0.0134086
-0.0089343
0.0162791
-0.0092605
0.0190623
-0.0092493
0.021707
-0.00897948
0.024181
-0.00852712
0.0264677
-0.00796113
0.0285634
-0.00734146
0.0304751
-0.00671878
0.0322185
-0.00613518
0.0338165
-0.00562532
0.0352981
-0.00521782
0.0366978
-0.00493685
0.0380545
-0.00480353
0.039412
-0.00483733
0.0408186
-0.00505715
0.0423271
-0.00548202
0.0439958
-0.00613114
0.0458882
-0.0070231
0.0480733
-0.00817344
0.0506256
-0.00959018
0.0536222
-0.0112657
0.0571387
-0.0131643
0.061238
-0.0152026
0.0659495
-0.0172238
0.071233
-0.0189675
0.0769246
-0.0200508
0.0826758
-0.0199938
-0.0183614
0.0879377
7.75424e-05
0.000840596
0.000979431
-0.00041571
0.00282311
-0.00306092
0.00538762
-0.00589918
0.00840051
-0.00836239
0.0116353
-0.0102376
0.0149249
-0.0114878
0.0181538
-0.012163
0.0212455
-0.0123521
0.0241527
-0.0121565
0.0268492
-0.0116759
0.029324
-0.0110018
0.0315775
-0.0102146
0.0336192
-0.00938308
0.0354653
-0.00856475
0.0371374
-0.00780722
0.0386618
-0.00714969
0.0400687
-0.0066247
0.0413918
-0.00625992
0.0426682
-0.00607985
0.0439382
-0.00610737
0.0452462
-0.0063651
0.0466404
-0.00687627
0.0481743
-0.00766508
0.0499073
-0.00875607
0.0519057
-0.010172
0.0542446
-0.0119291
0.0570075
-0.0140288
0.0602854
-0.0164423
0.0641686
-0.0190859
0.0687267
-0.021782
0.0739648
-0.0242056
0.0797417
-0.0258277
0.0856496
-0.0259018
-0.023633
0.0909212
0.00046243
0.000378253
0.00232559
-0.00227894
0.00535311
-0.00608847
0.00900091
-0.00954698
0.0128591
-0.0122205
0.0166789
-0.0140573
0.0203209
-0.0151298
0.0237137
-0.0155557
0.0268264
-0.0154647
0.0296521
-0.0149821
0.0321977
-0.0142215
0.0344787
-0.0132827
0.0365152
-0.0122511
0.0383309
-0.0111986
0.0399512
-0.010185
0.0414034
-0.00925933
0.0427158
-0.00846209
0.0439182
-0.007827
0.0450413
-0.00738304
0.0461177
-0.00715622
0.0471817
-0.00717132
0.04827
-0.00745338
0.0494226
-0.00802881
0.0506836
-0.00892606
0.0521028
-0.0101754
0.0537382
-0.0118074
0.0556579
-0.0138488
0.0579439
-0.0163148
0.0606942
-0.0191926
0.0640213
-0.022413
0.0680378
-0.0257987
0.0728118
-0.0289799
0.0782595
-0.0312759
0.0839391
-0.0315818
-0.028472
0.0887777
0.00132463
-0.000946501
0.00488856
-0.00584311
0.00954804
-0.0107481
0.0143781
-0.0143771
0.0189589
-0.0168015
0.0231306
-0.018229
0.0268503
-0.0188495
0.0301284
-0.0188338
0.0329977
-0.018334
0.0354989
-0.0174832
0.0376741
-0.0163967
0.0395641
-0.0151726
0.0412071
-0.0138941
0.0426386
-0.0126301
0.0438912
-0.0114376
0.0449953
-0.0103634
0.0459792
-0.0094459
0.0468697
-0.00871743
0.0476927
-0.00820596
0.0484736
-0.00793708
0.0492381
-0.00793576
0.0500126
-0.00822786
0.0508252
-0.00884142
0.0517068
-0.00980761
0.0526924
-0.011161
0.0538236
-0.0129386
0.0551519
-0.0151771
0.0567432
-0.0179062
0.0586845
-0.021134
0.061089
-0.0248176
0.0640949
-0.0288049
0.0678364
-0.0327219
0.0723356
-0.0357757
0.0771965
-0.0364434
-0.0322445
0.0809682
0.00364163
-0.00458823
0.0101726
-0.0123744
0.0166478
-0.0172235
0.0223257
-0.0200553
0.0271361
-0.0216121
0.0311613
-0.0222543
0.0345117
-0.0222
0.0372932
-0.0216153
0.039599
-0.0206398
0.041509
-0.0193933
0.0430916
-0.0179792
0.0444047
-0.0164858
0.0454977
-0.014987
0.0464121
-0.0135444
0.0471831
-0.0122085
0.0478403
-0.0110205
0.0484088
-0.0100144
0.04891
-0.00921855
0.0493623
-0.00865825
0.0497822
-0.0083569
0.0501845
-0.00833798
0.0505831
-0.00862643
0.0509918
-0.00925004
0.0514246
-0.0102403
0.0518967
-0.0116331
0.0524262
-0.013468
0.0530356
-0.0157864
0.0537555
-0.0186261
0.0546307
-0.0220092
0.0557291
-0.0259162
0.0571541
-0.0302301
0.0590504
-0.0346187
0.061566
-0.038292
0.0645831
-0.0394613
-0.033944
0.0662823
0.0124812
-0.0170696
0.0216801
-0.0215735
0.0284124
-0.0239561
0.0335523
-0.0251954
0.0375305
-0.0255904
0.0406218
-0.0253457
0.04302
-0.0245983
0.0448693
-0.0234647
0.0462823
-0.0220527
0.0473495
-0.0204605
0.0481453
-0.018775
0.0487306
-0.0170711
0.0491552
-0.0154116
0.0494591
-0.0138483
0.0496738
-0.0124232
0.0498237
-0.0111704
0.0499271
-0.0101177
0.0499973
-0.00928871
0.0500434
-0.00870424
0.0500709
-0.00838436
0.0500826
-0.00834965
0.0500788
-0.00862257
0.0500574
-0.00922854
0.0500138
-0.0101967
0.0499407
-0.01156
0.0498272
-0.0133544
0.0496572
-0.0156165
0.049408
-0.0183769
0.0490469
-0.0216482
0.0485297
-0.0253991
0.0478018
-0.0295025
0.0468091
-0.0336265
0.0455174
-0.0370009
0.0439979
-0.0379421
-0.0320878
0.0421416
0.0388749
-0.019825
0.042177
-0.0248758
0.045109
-0.0268884
0.0475142
-0.0276007
0.0493835
-0.0274599
0.0507474
-0.0267096
0.0516703
-0.0255213
0.0522285
-0.024023
0.0524968
-0.0223211
0.0525431
-0.0205069
0.0524264
-0.0186584
0.0521963
-0.016841
0.0518926
-0.0151079
0.051546
-0.0135017
0.0511792
-0.0120563
0.0508069
-0.0107981
0.0504378
-0.00974862
0.0500748
-0.0089257
0.0497162
-0.00834556
0.049356
-0.00802409
0.0489844
-0.00797807
0.0485882
-0.00822626
0.0481497
-0.00879
0.0476466
-0.00969344
0.0470495
-0.0109629
0.0463197
-0.0126245
0.0454031
-0.0146999
0.0442221
-0.0171958
0.0426596
-0.0200857
0.0405336
-0.0232731
0.037552
-0.0265209
0.0332362
-0.0293109
0.0267779
-0.0305426
0.0166103
-0.0277742
-0.0154774
0.0627846
-0.0192751
0.0620308
-0.0241222
0.061553
-0.0264108
0.0611498
-0.0271976
0.0606899
-0.0270001
0.0601037
-0.0261235
0.0593718
-0.0247894
0.0585087
-0.02316
0.0575461
-0.0213585
0.0565209
-0.0194817
0.0554691
-0.0176066
0.0544216
-0.0157935
0.0534026
-0.0140889
0.0524291
-0.0125282
0.0515107
-0.0111379
0.0506503
-0.00993777
0.0498449
-0.00894324
0.0490862
-0.00816697
0.0483612
-0.00762047
0.0476525
-0.00731537
0.0469389
-0.00726434
0.0461945
-0.0074818
0.0453886
-0.00798407
0.0444841
-0.00878887
0.043435
-0.00991367
0.0421825
-0.011372
0.0406488
-0.0131661
0.0387272
-0.0152741
0.0362677
-0.0176261
0.0330577
-0.0200629
0.0288022
-0.0222654
0.0231246
-0.023633
0.0156665
-0.0230839
0.00668824
-0.0187955
-0.00878906
0.079646
-0.0174702
0.0770545
-0.0215308
0.0744373
-0.0237937
0.0719333
-0.0246937
0.0695401
-0.024607
0.0672326
-0.023816
0.0649928
-0.0225496
0.0628191
-0.0209863
0.0607218
-0.0192613
0.0587172
-0.0174771
0.0568213
-0.0157108
0.0550472
-0.0140194
0.0534029
-0.0124445
0.0518901
-0.0110154
0.0505047
-0.00975257
0.0492372
-0.00867021
0.0480726
-0.00777866
0.0469917
-0.00708605
0.0459711
-0.00659981
0.0449834
-0.00632768
0.0439975
-0.00627843
0.042978
-0.00646221
0.0418842
-0.00689025
0.0406693
-0.00757381
0.0392773
-0.00852166
0.0376407
-0.0097353
0.0356752
-0.0112005
0.0332742
-0.0128729
0.0303032
-0.0146548
0.0265996
-0.0163591
0.0219921
-0.0176576
0.0163729
-0.0180134
0.00991188
-0.0166224
0.00361139
-0.0124944
-0.00517762
0.0892481
-0.0150188
0.0858341
-0.0181168
0.0820797
-0.0200393
0.0782794
-0.0208934
0.0745656
-0.0208932
0.0710003
-0.0202507
0.0676128
-0.0191621
0.0644201
-0.0177936
0.0614346
-0.0162758
0.0586655
-0.0147079
0.0561175
-0.0131628
0.0537904
-0.0116923
0.0516783
-0.0103325
0.04977
-0.00910711
0.0480489
-0.00803153
0.0464941
-0.00711544
0.0450806
-0.00636512
0.0437798
-0.00578518
0.0425597
-0.00537977
0.0413856
-0.00515349
0.0402191
-0.00511185
0.0390182
-0.0052613
0.0377368
-0.00560874
0.0363231
-0.00616001
0.0347186
-0.00691708
0.0328563
-0.00787292
0.030659
-0.00900307
0.0280386
-0.0102524
0.0248997
-0.0115156
0.0211529
-0.012612
0.0167522
-0.0132566
0.0117794
-0.0130404
0.00661301
-0.0114555
0.00218101
-0.00806194
-0.00299656
0.0919848
-0.0121728
0.088203
-0.014335
0.083929
-0.0157653
0.0794733
-0.0164377
0.0750336
-0.0164534
0.070735
-0.015952
0.0666538
-0.0150808
0.0628347
-0.0139744
0.0593026
-0.0127437
0.0560684
-0.0114737
0.0531322
-0.0102265
0.0504855
-0.00904564
0.0481128
-0.00795983
0.045993
-0.00698726
0.0441002
-0.00613869
0.0424049
-0.00542015
0.0408747
-0.00483493
0.0394746
-0.00438509
0.0381674
-0.00407248
0.0369133
-0.00389943
0.0356705
-0.00386899
0.0343941
-0.00398487
0.0330362
-0.00425076
0.0315451
-0.00466883
0.0298651
-0.00523695
0.0279363
-0.00594404
0.0256961
-0.00676269
0.0230822
-0.00763832
0.0200419
-0.00847511
0.0165506
-0.00912045
0.0126484
-0.00935415
0.00850478
-0.0088964
0.00451276
-0.00746312
0.00137269
-0.00492154
-0.00162384
0.0882884
-0.00908475
0.0843963
-0.0104429
0.0800049
-0.0113738
0.0753814
-0.0118141
0.0707308
-0.0118028
0.0662024
-0.0114236
0.0618978
-0.0107762
0.0578807
-0.0099573
0.0541862
-0.00904919
0.0508284
-0.00811577
0.0478054
-0.00720357
0.0451043
-0.00634455
0.0427038
-0.00555927
0.0405766
-0.00486002
0.0386914
-0.00425348
0.0370141
-0.00374282
0.0355084
-0.0033293
0.0341368
-0.00301338
0.0328599
-0.00279553
0.0316371
-0.00267661
0.0304263
-0.0026581
0.0291834
-0.00274192
0.0278625
-0.00292977
0.0264156
-0.0032219
0.0247936
-0.00361481
0.0229472
-0.00409747
0.0208303
-0.00464561
0.018406
-0.00521386
0.0156574
-0.00572633
0.0126057
-0.00606844
0.00933787
-0.00608605
0.00604526
-0.00560354
0.00306268
-0.00448025
0.000873897
-0.0027325
-0.00074992
0.0785108
-0.00594703
0.0747564
-0.00668849
0.0705866
-0.00720407
0.0662087
-0.00743618
0.0618023
-0.00739644
0.0575101
-0.00713132
0.0534351
-0.0067012
0.0496444
-0.00616662
0.046175
-0.0055798
0.0430407
-0.00498148
0.0402381
-0.00440102
0.0377517
-0.00385817
0.0355576
-0.0033652
0.0336267
-0.00292905
0.0319263
-0.00255304
0.0304219
-0.00223837
0.0290778
-0.00198511
0.0278574
-0.00179296
0.0267237
-0.00166171
0.0256387
-0.00159151
0.0245636
-0.00158296
0.0234588
-0.00163695
0.0222833
-0.00175421
0.020996
-0.00193446
0.0195561
-0.00217474
0.0179257
-0.00246691
0.016074
-0.00279376
0.0139841
-0.00312387
0.011664
-0.00340595
0.00916057
-0.00356483
0.00657872
-0.00350401
0.00409806
-0.00312269
0.00197786
-0.00235986
0.000526441
-0.00128096
-0.000223469
0.0629507
-0.00307363
0.0596604
-0.00339831
0.056078
-0.00362178
0.0523517
-0.00370992
0.0486213
-0.00366623
0.0450035
-0.00351355
0.0415844
-0.00328227
0.0384205
-0.00300282
0.0355419
-0.00270129
0.0329582
-0.00239775
0.0306635
-0.00210637
0.0286416
-0.00183636
0.0268696
-0.00159318
0.0253202
-0.00137963
0.023964
-0.00119681
0.0227706
-0.00104484
0.0217089
-0.000923353
0.020748
-0.000831899
0.0198565
-0.000770152
0.0190032
-0.000738025
0.0181561
-0.000735714
0.0172829
-0.000763604
0.0163509
-0.00082205
0.0153275
-0.000910896
0.0141815
-0.00102864
0.0128858
-0.00117105
0.0114212
-0.00132909
0.00978371
-0.00148619
0.00799309
-0.00161517
0.00610482
-0.00167639
0.00422068
-0.00161972
0.00249316
-0.00139505
0.0011119
-0.00097851
0.0002564
-0.0004254
3.29361e-05
0.0419174
-0.000913163
0.0395174
-0.000998387
0.0369495
-0.00105402
0.0343092
-0.0010697
0.0316901
-0.00104729
0.0291709
-0.000994372
0.0268089
-0.000920397
0.0246405
-0.00083446
0.0226832
-0.000744111
0.0209403
-0.000654924
0.0194046
-0.000570661
0.0180618
-0.00049362
0.0168937
-0.000425037
0.0158795
-0.000365424
0.0149976
-0.000314856
0.014226
-0.000273174
0.0135429
-0.000240134
0.0129266
-0.000215504
0.0123557
-0.000199123
0.0118087
-0.000190925
0.0112641
-0.000190961
0.0106999
-0.000199356
0.0100943
-0.000216268
0.00942522
-0.000241735
0.00867213
-0.00027545
0.0078175
-0.000316316
0.00685032
-0.000361808
0.00577128
-0.000407039
0.00459996
-0.000443718
0.00338311
-0.00045941
0.00220152
-0.000438025
0.00116964
-0.000363095
0.000417763
-0.000226584
4.1812e-05
-4.94171e-05
7.47518e-05
0.0157204
0.014722
0.013668
0.0125983
0.011551
0.0105566
0.00963619
0.00880172
0.0080576
0.00740267
0.00683201
0.00633839
0.00591335
0.00554793
0.00523308
0.00495992
0.00471979
0.0045043
0.00430519
0.00411428
0.00392333
0.00372399
0.00350773
0.00326601
0.00299057
0.00267426
0.00231247
0.00190544
0.00146174
0.00100234
0.000564329
0.000201241
-2.53384e-05
-7.47518e-05
0.0192147
-0.000979116
0.0199099
-0.000695244
0.0203073
-0.000397364
0.0204267
-0.000119405
0.0203047
0.000122105
0.0199798
0.000324909
0.0194837
0.000496082
0.0188372
0.0006465
0.0180518
0.00078533
0.000914779
0.017137
0.0483237
-0.00341497
0.0501398
-0.00251135
0.0512925
-0.00154991
0.0518113
-0.000638207
0.0517646
0.000168838
0.0512286
0.000860979
0.0502665
0.00145819
0.0489191
0.00199386
0.0472075
0.0024969
0.0029745
0.0451477
0.0695184
-0.00687278
0.0721354
-0.0051283
0.0738653
-0.00327967
0.0747609
-0.00153377
0.0749189
1.08443e-05
0.074438
0.0013419
0.0733922
0.00250406
0.0718183
0.0035677
0.0697212
0.00459401
0.00560052
0.0670952
0.0838534
-0.0109198
0.0868567
-0.00813158
0.0888279
-0.00525082
0.0898929
-0.00259875
0.090201
-0.00029723
0.0898753
0.00166759
0.0889863
0.00339305
0.0875425
0.00501151
0.0854979
0.00663866
0.00831468
0.0827838
0.0920892
-0.0150712
0.0949425
-0.0109848
0.0966787
-0.00698701
0.0975737
-0.00349379
0.0978602
-0.000583797
0.0976865
0.00184132
0.0971035
0.00397599
0.0960656
0.00604937
0.0944382
0.00826599
0.0107194
0.0920335
0.0945636
-0.0187137
0.0965689
-0.0129902
0.0974896
-0.00790774
0.0978316
-0.0038359
0.0979107
-0.00066304
0.0978723
0.0018796
0.0977221
0.00412614
0.0973396
0.00643174
0.0964697
0.00913593
0.0124599
0.0947292
0.0910382
-0.0209745
0.0913103
-0.0132625
0.0908375
-0.00743522
0.0903515
-0.00335021
0.0901497
-0.00046139
0.0902954
0.00173375
0.0907198
0.00370159
0.0912403
0.00591126
0.0914868
0.00888926
0.0131691
0.0907777
0.0804999
-0.0205067
0.0780719
-0.010835
0.075924
-0.00528767
0.0746735
-0.00210011
0.0743299
-0.000117948
0.0747663
0.00129717
0.0758493
0.00261847
0.0774372
0.00432324
0.0791844
0.00714212
0.0123592
0.0799942
0.0607128
-0.0149374
0.0552295
-0.00535202
0.052053
-0.00211152
0.0506448
-0.000692117
0.0504575
6.91312e-05
0.0511763
0.000578205
0.0526936
0.00110112
0.0551038
0.00191306
0.0585824
0.00366339
0.00901234
0.0619294
0.0272041
0.0218521
0.0197405
0.0190484
0.0191175
0.0196957
0.0207968
0.0227098
0.0263732
0.0353855
0.0161098
0.00102721
0.015002
0.00110776
0.0138561
0.00114585
0.0127151
0.00114091
0.0116156
0.00109942
0.0105848
0.00103074
0.00964021
0.000944582
0.00879047
0.000849694
0.00803744
0.000752997
0.00737793
0.000659476
0.00680556
0.000572342
0.00631206
0.000493486
0.00588825
0.000423804
0.00552466
0.00036359
0.00521194
0.000312736
0.00494098
0.000270983
0.00470302
0.000237991
0.00448957
0.00021349
0.00429234
0.000197268
0.00410314
0.000189254
0.00391372
0.000189464
0.00371574
0.000198032
0.0035007
0.000215094
0.00326005
0.000240701
0.00298557
0.000274527
0.00267012
0.000315491
0.00230909
0.000361055
0.00190278
0.000406339
0.00145976
0.000443055
0.001001
0.000458792
0.00056358
0.000437445
0.000200966
0.000362649
-2.53191e-05
0.000226284
-7.46554e-05
4.93395e-05
-7.46581e-05
0.042774
0.00340078
0.040158
0.00372371
0.0373995
0.00390418
0.0346044
0.00393594
0.0318667
0.00383698
0.0292608
0.00363659
0.0268382
0.00336706
0.0246293
0.00305849
0.0226466
0.00273565
0.020889
0.00241703
0.019346
0.0021153
0.018001
0.00183844
0.0168339
0.0015909
0.0158228
0.00137474
0.014945
0.00119052
0.0141781
0.00103794
0.0134999
0.000916357
0.0128883
0.000825138
0.0123219
0.000763807
0.0117791
0.000732197
0.0112382
0.000730433
0.0106775
0.000758868
0.0100749
0.000817821
0.00940858
0.000907126
0.00865795
0.00102526
0.00780554
0.001168
0.00684038
0.00132629
0.00576323
0.00148357
0.00459368
0.00161269
0.00337852
0.00167404
0.00219853
0.00161756
0.00116801
0.0013932
0.000417166
0.000977187
4.17337e-05
0.000424748
-3.29251e-05
0.0639657
0.00653023
0.0604276
0.00726175
0.0566271
0.0077047
0.0527206
0.00784237
0.0488489
0.00770871
0.0451246
0.00736088
0.0416286
0.00686303
0.0384114
0.00627567
0.0354977
0.00564929
0.0328925
0.00502226
0.0305862
0.0044216
0.0285596
0.00386497
0.0267876
0.00336295
0.0252412
0.00292114
0.0238899
0.00254187
0.0227023
0.00222558
0.0216469
0.0019718
0.0206923
0.00177985
0.0198069
0.00164922
0.0189593
0.0015799
0.0181175
0.00157234
0.0172491
0.00162734
0.0163214
0.00174559
0.0153019
0.00192673
0.0141595
0.0021678
0.0128669
0.00246062
0.0114054
0.00278797
0.00977058
0.00311846
0.00798259
0.00340081
0.00609687
0.00355993
0.00421516
0.00349938
0.00248987
0.00311863
0.00111036
0.00235672
0.000256003
0.00127912
0.000223078
0.0793816
0.00993243
0.0754047
0.0112386
0.0710499
0.0120596
0.0665209
0.0123714
0.0619943
0.0122353
0.0576092
0.011746
0.0534648
0.0110074
0.0496243
0.0101162
0.0461209
0.00915276
0.0429649
0.00817827
0.04015
0.00723649
0.0376582
0.00635678
0.0354636
0.00555754
0.0335354
0.0048493
0.03184
0.00423735
0.0303418
0.00372382
0.0290044
0.00330917
0.027791
0.00299329
0.0266641
0.0027762
0.0255855
0.00265849
0.0245165
0.00264143
0.0234171
0.00272676
0.0222467
0.00291609
0.0209639
0.00320961
0.0195281
0.00360374
0.0179014
0.00408742
0.0160531
0.00463635
0.0139665
0.00520517
0.0116495
0.00571801
0.0091492
0.00606037
0.0065705
0.00607831
0.00409281
0.00559642
0.00197523
0.00447439
0.000525738
0.00272873
0.000748842
0.0887412
0.0132248
0.0847135
0.0152664
0.0802233
0.0165499
0.0755221
0.0170727
0.0708081
0.0169494
0.0662279
0.0163263
0.061882
0.0153533
0.0578333
0.014165
0.054116
0.0128701
0.050743
0.0115514
0.0477112
0.0102682
0.0450065
0.00906156
0.0426061
0.00795792
0.0404818
0.00697355
0.0386015
0.00611768
0.0369302
0.00539508
0.0354313
0.00480811
0.0340665
0.0043581
0.0327964
0.00404636
0.0315801
0.00387482
0.0303753
0.00384624
0.029138
0.00396413
0.0278221
0.00423201
0.0263799
0.00465195
0.0247619
0.00522173
0.0229192
0.00593023
0.0208057
0.00674995
0.0183847
0.0076263
0.0156394
0.00846349
0.0125911
0.00910898
0.00932676
0.00934277
0.00603783
0.00888556
0.00305874
0.00745375
0.000872662
0.004915
0.00162154
0.0918385
0.0161155
0.0880673
0.0190376
0.0838179
0.0207993
0.0793829
0.0215078
0.0749546
0.0213777
0.070659
0.020622
0.0665751
0.0194373
0.0627508
0.0179893
0.0592132
0.0164077
0.0559747
0.0147898
0.0530363
0.0132067
0.0503895
0.0117083
0.0480188
0.0103286
0.0459025
0.00908978
0.0440146
0.00800564
0.042325
0.00708467
0.0408009
0.00633216
0.0394071
0.00575191
0.038106
0.00534748
0.0368579
0.00512298
0.0356205
0.00508359
0.0343492
0.00523551
0.0329958
0.00558543
0.0315088
0.00613905
0.0298324
0.00689824
0.0279068
0.00785585
0.0256695
0.00898735
0.0230584
0.0102375
0.020021
0.0115011
0.0165328
0.0125974
0.0126342
0.0132416
0.0084947
0.0130253
0.00450702
0.0114416
0.00137083
0.00805166
0.00299243
0.088508
0.0183852
0.0852725
0.0222731
0.0816665
0.0244053
0.0779785
0.0251958
0.074344
0.0250123
0.0708313
0.0241346
0.0674771
0.0227916
0.0643044
0.021162
0.0613308
0.0193813
0.0585688
0.0175518
0.0560257
0.0157498
0.0537027
0.0140313
0.0515947
0.0124366
0.0496908
0.0109937
0.0479745
0.00972191
0.0464248
0.00863435
0.0450165
0.00774043
0.0437209
0.00704752
0.042506
0.0065624
0.0413367
0.00629233
0.0401746
0.0062457
0.0389778
0.00643237
0.0376999
0.00686336
0.0362893
0.00754974
0.0346875
0.00850014
0.0328274
0.00971595
0.0306321
0.0111828
0.0280135
0.0128562
0.0248764
0.0146383
0.0211319
0.0163422
0.0167343
0.0176394
0.0117657
0.0179941
0.0066047
0.0166033
0.00217807
0.0124789
0.00517063
0.0785575
0.019822
0.0762582
0.0245724
0.0738613
0.0268022
0.0715187
0.0275385
0.0692407
0.0272903
0.0670132
0.0263621
0.0648277
0.024977
0.06269
0.0232996
0.0606164
0.0214549
0.0586271
0.019541
0.0567416
0.0176353
0.0549749
0.015798
0.0533362
0.0140753
0.0518282
0.0125017
0.0504473
0.0111028
0.049184
0.00989767
0.0480235
0.00890091
0.0469466
0.00812449
0.0459296
0.00757934
0.0449454
0.00727658
0.0439626
0.00722852
0.0429458
0.00744927
0.0418543
0.00795491
0.0406411
0.00876299
0.0392505
0.00989081
0.0376148
0.0113517
0.0356498
0.0131479
0.033249
0.0152571
0.0302782
0.0176094
0.0265752
0.0200453
0.0219694
0.0222456
0.0163537
0.0236103
0.00989882
0.0230587
0.00360628
0.0187723
0.00877699
0.0617672
0.019984
0.0612891
0.0250505
0.06101
0.0270812
0.0607527
0.0277957
0.0604
0.0276429
0.0598917
0.0268704
0.0592155
0.0256531
0.0583917
0.0241234
0.0574561
0.0223904
0.0564494
0.0205477
0.0554102
0.0186745
0.0543713
0.0168369
0.0533584
0.0150881
0.0523895
0.0134706
0.0514748
0.0120176
0.0506175
0.010755
0.0498148
0.0097036
0.0490585
0.00888082
0.0483356
0.0083023
0.0476288
0.00798346
0.0469166
0.00794073
0.0461734
0.00819256
0.0453683
0.00876007
0.0444641
0.00966723
0.0434148
0.0109402
0.0421616
0.012605
0.0406266
0.0146829
0.0387033
0.0171806
0.0362417
0.0200711
0.0330295
0.0232576
0.0287727
0.0265025
0.0230961
0.0292869
0.0156436
0.0305115
0.00667742
0.0277387
0.0154544
0.0383055
0.017064
0.0417233
0.0216325
0.0447512
0.0240532
0.0472371
0.0253097
0.0491732
0.0257067
0.050591
0.0254525
0.0515561
0.024688
0.0521462
0.0235332
0.052438
0.0220986
0.052501
0.0204847
0.0523959
0.0187796
0.0521736
0.0170592
0.0518752
0.0153866
0.0515322
0.0138136
0.0511676
0.0123821
0.050797
0.0111257
0.050429
0.0100716
0.0500667
0.00924312
0.0497085
0.00866055
0.0493485
0.00834356
0.0489768
0.0083124
0.0485802
0.00858926
0.048141
0.00919935
0.0476367
0.0101716
0.0470379
0.0115389
0.0463058
0.0133371
0.0453861
0.0156026
0.044201
0.0183657
0.0426335
0.0216387
0.0405013
0.0253898
0.0375129
0.0294908
0.0331909
0.0336087
0.0267304
0.0369717
0.0165724
0.0378963
0.0320268
0.0123841
0.00467982
0.0215384
0.012478
0.0282667
0.0173247
0.0334222
0.020154
0.0374247
0.0217042
0.0405421
0.022335
0.0429646
0.0222654
0.0448346
0.0216632
0.0462638
0.0206694
0.0473432
0.0194052
0.0481476
0.0179752
0.0487386
0.0164682
0.0491666
0.0149585
0.0494723
0.013508
0.0496876
0.0121668
0.0498374
0.0109759
0.0499402
0.0099689
0.0500094
0.00917396
0.0500542
0.0086158
0.0500803
0.00831755
0.0500904
0.00830236
0.0500847
0.00859497
0.0500612
0.00922295
0.0500151
0.0102177
0.0499391
0.011615
0.0498218
0.0134544
0.0496472
0.0157772
0.0493918
0.0186211
0.0490225
0.022008
0.0484943
0.0259179
0.0477514
0.0302333
0.0467387
0.034621
0.04542
0.0382897
0.0438645
0.0394514
0.0339306
0.0419603
0.00365074
0.00102901
0.0101652
0.00596326
0.0166268
0.0108629
0.0223016
0.0144791
0.0271172
0.0168884
0.0311524
0.0182997
0.0345145
0.0189033
0.0373071
0.0188705
0.0396224
0.0183541
0.0415397
0.0174879
0.0431272
0.0163877
0.0444432
0.0151522
0.0455373
0.0138645
0.0464515
0.0125938
0.0472213
0.0113971
0.0478766
0.0103207
0.0484427
0.00940283
0.0489412
0.0086755
0.0493907
0.00816634
0.0498077
0.00790064
0.050207
0.00790312
0.0506026
0.00819944
0.051008
0.00881752
0.0514374
0.00978845
0.0519057
0.0111467
0.0524306
0.0129295
0.0530343
0.0151735
0.0537468
0.0179086
0.0546119
0.0211428
0.0556961
0.0248336
0.0571003
0.0288287
0.058966
0.0327547
0.0614359
0.0358192
0.0643849
0.0365018
0.0323297
0.0659854
0.00134355
-0.000314626
0.00491935
0.00238744
0.00958174
0.00620052
0.0144134
0.00964736
0.0189976
0.0123042
0.0231743
0.014123
0.0269
0.0151776
0.030184
0.0155866
0.0330582
0.01548
0.0355628
0.0149833
0.0377398
0.0142107
0.0396301
0.0132619
0.041272
0.0122226
0.0427012
0.0111646
0.0439508
0.0101475
0.0450512
0.00922027
0.0460311
0.00842301
0.0469174
0.00778923
0.0477362
0.00734761
0.048513
0.00712391
0.0492734
0.00714272
0.050044
0.00742891
0.0508527
0.0080088
0.0517304
0.00891083
0.0527118
0.0101653
0.0538383
0.011803
0.055161
0.0138509
0.0567451
0.0163244
0.0586765
0.0192113
0.0610667
0.0224432
0.0640515
0.0258436
0.0677613
0.0290445
0.0722123
0.0313678
0.0770005
0.0317133
0.0286646
0.0806654
0.000479777
-0.000794333
0.0023639
0.000503432
0.00540635
0.00315818
0.00906429
0.00598949
0.01293
0.00843855
0.016756
0.0102971
0.0204032
0.0115305
0.0237999
0.0121899
0.0269153
0.0123647
0.0297421
0.0121565
0.0322875
0.0116654
0.0345667
0.0109828
0.0366002
0.0101891
0.0384118
0.00935305
0.0400275
0.00853197
0.0414745
0.00777329
0.0427816
0.00711599
0.0439785
0.00659234
0.0450964
0.00622979
0.0461677
0.00605262
0.0472269
0.00608357
0.0483107
0.00634512
0.049459
0.00686047
0.050716
0.00765384
0.0521314
0.00874989
0.0537628
0.0101716
0.055678
0.0119356
0.0579584
0.0140438
0.0607014
0.0164683
0.064018
0.0191265
0.0680189
0.0218426
0.0727691
0.0242941
0.0781808
0.0259559
0.083806
0.026088
0.023905
0.0885655
9.19588e-05
-0.000886237
0.00101598
-0.000420376
0.00288001
0.00129432
0.00546071
0.00340895
0.00848591
0.00541347
0.0117298
0.00705332
0.0150259
0.00823449
0.0182589
0.00895697
0.0213526
0.00927094
0.02426
0.00924917
0.0269549
0.00897054
0.0294266
0.00851118
0.0316758
0.00793994
0.0337122