/*--------------------------------*- C++ -*----------------------------------*\
| =========                 |                                                 |
| \\      /  F ield         | OpenFOAM: The Open Source CFD Toolbox           |
|  \\    /   O peration     | Version:  2406                                  |
|   \\  /    A nd           | Website:  www.openfoam.com                      |
|    \\/     M anipulation  |                                                 |
\*---------------------------------------------------------------------------*/
FoamFile
{
    version     2.0;
    format      ascii;
    arch        "LSB;label=32;scalar=64";
    class       volVectorField;
    location    "23";
    object      U;
}
// * * * * * * * * * * * * * * * * * * * * * * * * * * * * * * * * * * * * * //

dimensions      [0 1 -1 0 0 0 0];

internalField   nonuniform List<vector> 
1700
(
(0.51361 0.0690897 0)
(0.43864 0.066102 0)
(0.344291 0.0333595 0)
(0.276162 0.015243 0)
(0.241977 0.00701403 0)
(0.22702 0.00234201 0)
(0.223652 -0.0011018 0)
(0.230479 -0.00529841 0)
(0.253991 -0.0172863 0)
(0.295841 -0.0695877 0)
(0.678239 0.13941 0)
(0.692295 0.175283 0)
(0.653636 0.124936 0)
(0.606624 0.0754099 0)
(0.57548 0.0401506 0)
(0.560019 0.0157629 0)
(0.557277 -0.00309328 0)
(0.566373 -0.0224841 0)
(0.588828 -0.0513121 0)
(0.618574 -0.107984 0)
(0.681761 0.0983232 0)
(0.736269 0.153491 0)
(0.765556 0.131695 0)
(0.773943 0.0911429 0)
(0.775254 0.0526109 0)
(0.776906 0.0205295 0)
(0.781849 -0.00697493 0)
(0.79119 -0.0347848 0)
(0.804465 -0.0699426 0)
(0.815391 -0.121457 0)
(0.676545 0.0500461 0)
(0.734934 0.0922428 0)
(0.795725 0.0888977 0)
(0.842389 0.0654291 0)
(0.873981 0.0369466 0)
(0.894971 0.00934041 0)
(0.90938 -0.0169459 0)
(0.919573 -0.0444386 0)
(0.92573 -0.0770015 0)
(0.924302 -0.117972 0)
(0.674457 0.0140197 0)
(0.729344 0.0267474 0)
(0.799245 0.0247949 0)
(0.862107 0.0145363 0)
(0.908916 0.000720294 0)
(0.940193 -0.0146824 0)
(0.959041 -0.031728 0)
(0.968116 -0.0516582 0)
(0.968515 -0.0760072 0)
(0.959057 -0.105375 0)
(0.67441 -0.0179916 0)
(0.72878 -0.0381963 0)
(0.79759 -0.0440235 0)
(0.858675 -0.042853 0)
(0.902909 -0.0406204 0)
(0.930675 -0.0407885 0)
(0.944934 -0.0451147 0)
(0.948323 -0.0543427 0)
(0.942241 -0.0685378 0)
(0.92663 -0.0868717 0)
(0.676405 -0.0534604 0)
(0.73331 -0.102025 0)
(0.790998 -0.105193 0)
(0.832674 -0.0893136 0)
(0.857103 -0.0706494 0)
(0.868319 -0.056576 0)
(0.869824 -0.049455 0)
(0.863657 -0.0491653 0)
(0.85056 -0.0545567 0)
(0.830337 -0.063954 0)
(0.681549 -0.100694 0)
(0.733908 -0.160199 0)
(0.758778 -0.142707 0)
(0.760215 -0.107195 0)
(0.751647 -0.0754193 0)
(0.739694 -0.053116 0)
(0.726185 -0.0403125 0)
(0.710981 -0.0350983 0)
(0.693115 -0.0352877 0)
(0.671413 -0.0388837 0)
(0.678012 -0.140526 0)
(0.689943 -0.178395 0)
(0.647005 -0.129979 0)
(0.593429 -0.0827855 0)
(0.552996 -0.0508412 0)
(0.524463 -0.0316059 0)
(0.503186 -0.0212452 0)
(0.485573 -0.016612 0)
(0.46882 -0.0154771 0)
(0.450894 -0.016318 0)
(0.513479 -0.069265 0)
(0.43746 -0.0665434 0)
(0.341003 -0.0340198 0)
(0.269705 -0.0161817 0)
(0.230975 -0.00839087 0)
(0.209357 -0.00450276 0)
(0.195939 -0.00258817 0)
(0.186497 -0.00178666 0)
(0.178555 -0.00155934 0)
(0.170632 -0.00160579 0)
(-0.000492159 0.000481841 0)
(-0.00244724 0.000723012 0)
(-0.00437705 0.000592476 0)
(-0.00532016 0.000281612 0)
(-0.00472391 -6.82776e-05 0)
(-0.00255072 -0.000388881 0)
(0.000976068 -0.000644037 0)
(0.00552379 -0.000821334 0)
(0.010737 -0.000923741 0)
(0.0162877 -0.000962371 0)
(0.0219016 -0.000951368 0)
(0.0273683 -0.000905235 0)
(0.0325413 -0.000837163 0)
(0.037332 -0.00075845 0)
(0.0417023 -0.000678149 0)
(0.0456553 -0.000603333 0)
(0.0492274 -0.00053925 0)
(0.0524812 -0.000489896 0)
(0.0555001 -0.000458274 0)
(0.0583848 -0.000447015 0)
(0.061251 -0.000458531 0)
(0.0642293 -0.000495571 0)
(0.0674647 -0.000561153 0)
(0.0711184 -0.000658899 0)
(0.0753673 -0.000792507 0)
(0.0804031 -0.000965464 0)
(0.0864266 -0.0011795 0)
(0.0936353 -0.00143287 0)
(0.102201 -0.00171702 0)
(0.112231 -0.00201313 0)
(0.12372 -0.00228803 0)
(0.136478 -0.00249297 0)
(0.150073 -0.00256718 0)
(0.163797 -0.00245214 0)
(0.176706 -0.00211598 0)
(-0.000825689 0.00249871 0)
(-0.00428399 0.00383908 0)
(-0.00694387 0.00265204 0)
(-0.00709049 7.21514e-05 0)
(-0.00379639 -0.00293296 0)
(0.00292108 -0.00574195 0)
(0.0125491 -0.00802051 0)
(0.0243573 -0.00964011 0)
(0.0375725 -0.0106039 0)
(0.0514823 -0.0109888 0)
(0.0654896 -0.0109072 0)
(0.079133 -0.0104809 0)
(0.0920883 -0.00982708 0)
(0.104157 -0.00904999 0)
(0.115251 -0.00823813 0)
(0.125375 -0.00746382 0)
(0.134608 -0.00678513 0)
(0.143093 -0.0062483 0)
(0.151022 -0.00589101 0)
(0.158629 -0.0057452 0)
(0.166187 -0.0058402 0)
(0.174 -0.00620455 0)
(0.182411 -0.0068678 0)
(0.191794 -0.00785977 0)
(0.202557 -0.00920891 0)
(0.215136 -0.0109358 0)
(0.22998 -0.0130438 0)
(0.247524 -0.0155017 0)
(0.26814 -0.0182217 0)
(0.292064 -0.0210308 0)
(0.319285 -0.0236458 0)
(0.349409 -0.0256613 0)
(0.381526 -0.0265826 0)
(0.414124 -0.0259223 0)
(0.445157 -0.0233852 0)
(-0.000911156 0.0050075 0)
(-0.00428066 0.00693734 0)
(-0.00554969 0.00344478 0)
(-0.00288791 -0.00286798 0)
(0.00449825 -0.00994202 0)
(0.0163162 -0.0164447 0)
(0.0317494 -0.0216636 0)
(0.0497815 -0.0253329 0)
(0.0693951 -0.0274752 0)
(0.0896829 -0.0282748 0)
(0.109899 -0.0279925 0)
(0.129478 -0.0269095 0)
(0.148025 -0.025296 0)
(0.165304 -0.0233933 0)
(0.181219 -0.0214083 0)
(0.195788 -0.0195121 0)
(0.209124 -0.0178444 0)
(0.221422 -0.0165182 0)
(0.232943 -0.0156269 0)
(0.244001 -0.0152505 0)
(0.254962 -0.0154617 0)
(0.266239 -0.0163305 0)
(0.278287 -0.0179267 0)
(0.291607 -0.0203195 0)
(0.306743 -0.0235718 0)
(0.324272 -0.0277276 0)
(0.344792 -0.0327897 0)
(0.368888 -0.0386834 0)
(0.397078 -0.0452072 0)
(0.429719 -0.0519695 0)
(0.466876 -0.0583273 0)
(0.508134 -0.0633527 0)
(0.552395 -0.0658858 0)
(0.597698 -0.0647394 0)
(0.641231 -0.0591243 0)
(-0.000925028 0.00736216 0)
(-0.00314752 0.00865391 0)
(-0.00138631 0.0013482 0)
(0.00584601 -0.0100259 0)
(0.0187279 -0.0221309 0)
(0.0364202 -0.0329153 0)
(0.057716 -0.0413463 0)
(0.0813578 -0.0470994 0)
(0.106202 -0.0502858 0)
(0.131293 -0.0512546 0)
(0.155884 -0.0504567 0)
(0.179428 -0.0483643 0)
(0.201566 -0.0454233 0)
(0.222101 -0.0420307 0)
(0.240971 -0.0385259 0)
(0.258234 -0.0351917 0)
(0.27404 -0.0322599 0)
(0.288623 -0.0299206 0)
(0.302281 -0.0283318 0)
(0.315372 -0.0276303 0)
(0.328306 -0.02794 0)
(0.341541 -0.02938 0)
(0.355584 -0.0320679 0)
(0.370991 -0.03612 0)
(0.388366 -0.0416414 0)
(0.408359 -0.0487095 0)
(0.431651 -0.0573357 0)
(0.458935 -0.0674132 0)
(0.490861 -0.0786317 0)
(0.527951 -0.0903744 0)
(0.57045 -0.101595 0)
(0.618096 -0.110733 0)
(0.669808 -0.115748 0)
(0.723338 -0.114426 0)
(0.775119 -0.10513 0)
(-0.000920359 0.00901623 0)
(-0.00098165 0.00759068 0)
(0.00561698 -0.00543485 0)
(0.0193749 -0.0230384 0)
(0.0392772 -0.0405837 0)
(0.0636739 -0.0555014 0)
(0.0909237 -0.0666715 0)
(0.119606 -0.0738909 0)
(0.148584 -0.0774811 0)
(0.176998 -0.0780221 0)
(0.204234 -0.0761865 0)
(0.229884 -0.0726444 0)
(0.25371 -0.0680133 0)
(0.275617 -0.0628355 0)
(0.295626 -0.0575719 0)
(0.313854 -0.0526061 0)
(0.330498 -0.0482537 0)
(0.34582 -0.0447751 0)
(0.360137 -0.0423887 0)
(0.373818 -0.0412848 0)
(0.387278 -0.0416373 0)
(0.400976 -0.0436139 0)
(0.415417 -0.0473819 0)
(0.431157 -0.0531076 0)
(0.448803 -0.0609481 0)
(0.469018 -0.0710267 0)
(0.492524 -0.0833906 0)
(0.520084 -0.0979356 0)
(0.552479 -0.114294 0)
(0.590436 -0.131673 0)
(0.634476 -0.14865 0)
(0.68465 -0.162971 0)
(0.740079 -0.171486 0)
(0.79833 -0.17048 0)
(0.854884 -0.156865 0)
(-0.000777109 0.00946641 0)
(0.00296159 0.00213193 0)
(0.016969 -0.019023 0)
(0.0396793 -0.0437788 0)
(0.0681861 -0.0665033 0)
(0.0998927 -0.084619 0)
(0.132846 -0.0973265 0)
(0.165663 -0.104803 0)
(0.197409 -0.107721 0)
(0.227487 -0.106945 0)
(0.255546 -0.103379 0)
(0.281411 -0.0978723 0)
(0.305039 -0.0911845 0)
(0.326484 -0.0839711 0)
(0.345876 -0.0767842 0)
(0.363408 -0.0700813 0)
(0.379322 -0.0642393 0)
(0.393902 -0.0595704 0)
(0.407466 -0.056339 0)
(0.42037 -0.0547772 0)
(0.432999 -0.0551005 0)
(0.445778 -0.0575189 0)
(0.459166 -0.0622461 0)
(0.473673 -0.0694998 0)
(0.489857 -0.0794959 0)
(0.508348 -0.0924222 0)
(0.529848 -0.108395 0)
(0.555153 -0.127368 0)
(0.585142 -0.148998 0)
(0.620748 -0.172417 0)
(0.662835 -0.195915 0)
(0.71191 -0.216536 0)
(0.767527 -0.229766 0)
(0.827239 -0.229695 0)
(0.885363 -0.210659 0)
(-0.000137468 0.00803775 0)
(0.0108642 -0.0102439 0)
(0.0362974 -0.0423308 0)
(0.0708684 -0.0743638 0)
(0.109188 -0.100861 0)
(0.148015 -0.120207 0)
(0.185554 -0.132469 0)
(0.22084 -0.138471 0)
(0.253406 -0.13932 0)
(0.283092 -0.136173 0)
(0.309917 -0.130124 0)
(0.334004 -0.122148 0)
(0.355537 -0.113094 0)
(0.374738 -0.103679 0)
(0.391854 -0.0945015 0)
(0.407149 -0.0860561 0)
(0.420902 -0.0787492 0)
(0.433403 -0.0729191 0)
(0.444954 -0.0688546 0)
(0.455871 -0.0668134 0)
(0.466488 -0.0670378 0)
(0.477158 -0.0697699 0)
(0.488262 -0.0752609 0)
(0.500219 -0.0837774 0)
(0.513495 -0.095595 0)
(0.528623 -0.110982 0)
(0.546228 -0.130151 0)
(0.567054 -0.153178 0)
(0.591996 -0.179838 0)
(0.62212 -0.209334 0)
(0.658602 -0.239834 0)
(0.702487 -0.267789 0)
(0.754029 -0.28711 0)
(0.811191 -0.288742 0)
(0.867306 -0.262399 0)
(0.00196458 0.00218996 0)
(0.0280094 -0.0348718 0)
(0.0708402 -0.0796962 0)
(0.11983 -0.116818 0)
(0.167586 -0.14371 0)
(0.211543 -0.161036 0)
(0.251005 -0.170175 0)
(0.285934 -0.172662 0)
(0.31658 -0.169977 0)
(0.343329 -0.163462 0)
(0.366607 -0.154297 0)
(0.386836 -0.143496 0)
(0.404411 -0.13192 0)
(0.419701 -0.120288 0)
(0.433046 -0.109195 0)
(0.444759 -0.0991282 0)
(0.455133 -0.0904907 0)
(0.464441 -0.0836184 0)
(0.472947 -0.0788016 0)
(0.480905 -0.076303 0)
(0.48857 -0.0763756 0)
(0.496201 -0.0792783 0)
(0.504068 -0.0852876 0)
(0.512463 -0.0947067 0)
(0.521713 -0.107865 0)
(0.532194 -0.125108 0)
(0.544366 -0.14676 0)
(0.558803 -0.173053 0)
(0.576256 -0.203967 0)
(0.597719 -0.238933 0)
(0.624467 -0.276261 0)
(0.657953 -0.312137 0)
(0.699313 -0.33904 0)
(0.747656 -0.343813 0)
(0.796718 -0.307693 0)
(0.0146482 -0.0244462 0)
(0.0690865 -0.0853191 0)
(0.134671 -0.136896 0)
(0.196682 -0.171505 0)
(0.249326 -0.192695 0)
(0.29325 -0.203714 0)
(0.329847 -0.206885 0)
(0.360273 -0.204038 0)
(0.385509 -0.196706 0)
(0.406412 -0.186198 0)
(0.423721 -0.17363 0)
(0.438069 -0.159951 0)
(0.44999 -0.145958 0)
(0.459934 -0.132311 0)
(0.468284 -0.119557 0)
(0.47536 -0.108139 0)
(0.481433 -0.0984266 0)
(0.486734 -0.0907274 0)
(0.49146 -0.0853113 0)
(0.495785 -0.0824273 0)
(0.499862 -0.0823216 0)
(0.503835 -0.0852522 0)
(0.50784 -0.0915037 0)
(0.512016 -0.101396 0)
(0.516508 -0.115289 0)
(0.521478 -0.13358 0)
(0.527125 -0.15668 0)
(0.533709 -0.184951 0)
(0.541594 -0.218589 0)
(0.551332 -0.257335 0)
(0.563764 -0.29991 0)
(0.5801 -0.342838 0)
(0.601949 -0.378207 0)
(0.630558 -0.389485 0)
(0.664324 -0.344763 0)
(0.0951484 -0.0980092 0)
(0.177987 -0.172262 0)
(0.252451 -0.210357 0)
(0.312435 -0.23061 0)
(0.357809 -0.239923 0)
(0.392621 -0.24149 0)
(0.419657 -0.23714 0)
(0.440605 -0.228264 0)
(0.456687 -0.216077 0)
(0.468895 -0.201656 0)
(0.478047 -0.185945 0)
(0.484818 -0.169758 0)
(0.48976 -0.153779 0)
(0.493317 -0.138576 0)
(0.495843 -0.124614 0)
(0.497616 -0.112271 0)
(0.498846 -0.101858 0)
(0.499688 -0.0936381 0)
(0.500253 -0.0878437 0)
(0.500612 -0.0846948 0)
(0.500806 -0.0844144 0)
(0.50085 -0.0872433 0)
(0.500735 -0.0934521 0)
(0.500427 -0.103351 0)
(0.499871 -0.117294 0)
(0.498978 -0.135674 0)
(0.49762 -0.158907 0)
(0.49561 -0.187376 0)
(0.492686 -0.221322 0)
(0.488488 -0.260605 0)
(0.482534 -0.304188 0)
(0.474176 -0.349051 0)
(0.463025 -0.387851 0)
(0.451414 -0.403937 0)
(0.450975 -0.359033 0)
(0.392032 -0.202885 0)
(0.410804 -0.245961 0)
(0.436605 -0.264217 0)
(0.464075 -0.271478 0)
(0.485865 -0.271158 0)
(0.501846 -0.265113 0)
(0.513044 -0.254675 0)
(0.520262 -0.240948 0)
(0.52423 -0.224929 0)
(0.525652 -0.207525 0)
(0.525168 -0.189537 0)
(0.523325 -0.171653 0)
(0.520571 -0.154446 0)
(0.517256 -0.138385 0)
(0.513646 -0.123847 0)
(0.509923 -0.111133 0)
(0.506204 -0.100491 0)
(0.502544 -0.0921265 0)
(0.498947 -0.0862269 0)
(0.495373 -0.0829721 0)
(0.491745 -0.0825508 0)
(0.487945 -0.0851712 0)
(0.483822 -0.0910705 0)
(0.479179 -0.10052 0)
(0.473763 -0.113823 0)
(0.467244 -0.131304 0)
(0.459174 -0.153268 0)
(0.448919 -0.179931 0)
(0.435553 -0.211261 0)
(0.417666 -0.246676 0)
(0.392995 -0.284413 0)
(0.357655 -0.320201 0)
(0.304818 -0.344135 0)
(0.226093 -0.332138 0)
(0.120414 -0.216518 0)
(0.637655 -0.200593 0)
(0.626253 -0.251302 0)
(0.617371 -0.273236 0)
(0.613379 -0.280169 0)
(0.609543 -0.277719 0)
(0.604366 -0.26886 0)
(0.597712 -0.255606 0)
(0.589665 -0.239417 0)
(0.580454 -0.221429 0)
(0.570427 -0.20257 0)
(0.55996 -0.183603 0)
(0.549395 -0.165148 0)
(0.539013 -0.147699 0)
(0.52902 -0.131641 0)
(0.519548 -0.117271 0)
(0.510656 -0.104821 0)
(0.502343 -0.0944712 0)
(0.494551 -0.0863739 0)
(0.48717 -0.0806669 0)
(0.48005 -0.0774871 0)
(0.472998 -0.076982 0)
(0.465778 -0.079318 0)
(0.458111 -0.0846848 0)
(0.449662 -0.0932935 0)
(0.440022 -0.105365 0)
(0.42868 -0.121101 0)
(0.414971 -0.140621 0)
(0.397999 -0.163846 0)
(0.37652 -0.190274 0)
(0.348775 -0.218571 0)
(0.312224 -0.245806 0)
(0.26322 -0.266032 0)
(0.197324 -0.267663 0)
(0.115345 -0.229134 0)
(0.0278465 -0.118584 0)
(0.810125 -0.186228 0)
(0.785489 -0.231124 0)
(0.75741 -0.254673 0)
(0.731539 -0.263454 0)
(0.707196 -0.261989 0)
(0.683723 -0.25339 0)
(0.660964 -0.240026 0)
(0.63887 -0.223674 0)
(0.617481 -0.205665 0)
(0.596932 -0.187012 0)
(0.577392 -0.168493 0)
(0.559017 -0.150696 0)
(0.541914 -0.134061 0)
(0.526133 -0.11891 0)
(0.511661 -0.105474 0)
(0.498428 -0.0939222 0)
(0.486311 -0.0843802 0)
(0.475138 -0.07695 0)
(0.464693 -0.0717243 0)
(0.454725 -0.0687987 0)
(0.44494 -0.0682792 0)
(0.435007 -0.0702877 0)
(0.424549 -0.0749613 0)
(0.413132 -0.0824432 0)
(0.400249 -0.092862 0)
(0.385292 -0.106287 0)
(0.367514 -0.122646 0)
(0.345973 -0.141584 0)
(0.319473 -0.162215 0)
(0.286521 -0.182717 0)
(0.245328 -0.199692 0)
(0.194089 -0.207216 0)
(0.132408 -0.195668 0)
(0.0666734 -0.151476 0)
(0.00960137 -0.0645163 0)
(0.908363 -0.163784 0)
(0.877522 -0.199502 0)
(0.840154 -0.220912 0)
(0.801743 -0.230125 0)
(0.763964 -0.229898 0)
(0.727449 -0.222731 0)
(0.692604 -0.210819 0)
(0.659656 -0.195944 0)
(0.628737 -0.179483 0)
(0.599947 -0.162474 0)
(0.573356 -0.145683 0)
(0.548988 -0.129664 0)
(0.526814 -0.114809 0)
(0.506748 -0.101382 0)
(0.488649 -0.0895628 0)
(0.472328 -0.0794684 0)
(0.457554 -0.0711792 0)
(0.444057 -0.0647566 0)
(0.431536 -0.0602561 0)
(0.419656 -0.0577376 0)
(0.408052 -0.0572705 0)
(0.396325 -0.0589359 0)
(0.384034 -0.062822 0)
(0.370695 -0.0690106 0)
(0.355759 -0.0775495 0)
(0.338603 -0.0884008 0)
(0.31851 -0.101353 0)
(0.294649 -0.11588 0)
(0.266087 -0.13092 0)
(0.231848 -0.144565 0)
(0.191103 -0.153664 0)
(0.143674 -0.153439 0)
(0.0914056 -0.137463 0)
(0.0415205 -0.0991752 0)
(0.0047999 -0.0381659 0)
(0.937052 -0.136823 0)
(0.902979 -0.162823 0)
(0.861595 -0.179688 0)
(0.817233 -0.187546 0)
(0.772353 -0.187792 0)
(0.728407 -0.182137 0)
(0.686345 -0.17231 0)
(0.646751 -0.159842 0)
(0.609951 -0.14597 0)
(0.576107 -0.131638 0)
(0.545266 -0.117539 0)
(0.517382 -0.104157 0)
(0.492332 -0.0918223 0)
(0.469929 -0.0807448 0)
(0.449935 -0.0710547 0)
(0.432072 -0.0628288 0)
(0.416028 -0.0561125 0)
(0.401467 -0.0509367 0)
(0.388025 -0.0473294 0)
(0.37532 -0.0453227 0)
(0.362943 -0.0449576 0)
(0.350462 -0.0462823 0)
(0.337414 -0.0493468 0)
(0.323303 -0.0541865 0)
(0.307591 -0.0607938 0)
(0.289701 -0.0690672 0)
(0.269013 -0.0787304 0)
(0.24489 -0.0892098 0)
(0.216725 -0.0994674 0)
(0.18407 -0.1078 0)
(0.146871 -0.111663 0)
(0.105936 -0.107661 0)
(0.0638699 -0.092042 0)
(0.0268548 -0.0623965 0)
(0.0025774 -0.0217648 0)
(0.900705 -0.106786 0)
(0.865192 -0.123937 0)
(0.82299 -0.135571 0)
(0.777275 -0.141129 0)
(0.73045 -0.141195 0)
(0.684237 -0.136826 0)
(0.639861 -0.129239 0)
(0.598128 -0.119594 0)
(0.55951 -0.108863 0)
(0.524235 -0.0978039 0)
(0.49235 -0.0869678 0)
(0.463773 -0.0767365 0)
(0.438326 -0.0673592 0)
(0.41576 -0.058988 0)
(0.39578 -0.0517089 0)
(0.378055 -0.0455659 0)
(0.362232 -0.0405794 0)
(0.34794 -0.0367599 0)
(0.334796 -0.034117 0)
(0.3224 -0.0326646 0)
(0.310339 -0.0324236 0)
(0.298182 -0.0334195 0)
(0.285479 -0.0356767 0)
(0.271762 -0.0392032 0)
(0.256541 -0.0439649 0)
(0.23932 -0.0498425 0)
(0.219611 -0.056565 0)
(0.196978 -0.0636165 0)
(0.171119 -0.070121 0)
(0.142 -0.0747317 0)
(0.110072 -0.075593 0)
(0.0765978 -0.0705043 0)
(0.0441586 -0.057522 0)
(0.0174403 -0.0363589 0)
(0.00140268 -0.0109899 0)
(0.802558 -0.0750428 0)
(0.767705 -0.085014 0)
(0.727542 -0.0919283 0)
(0.684292 -0.0951359 0)
(0.639956 -0.0948238 0)
(0.596151 -0.0915983 0)
(0.554101 -0.0862345 0)
(0.514643 -0.0795057 0)
(0.47828 -0.0720787 0)
(0.44525 -0.0644745 0)
(0.41559 -0.0570717 0)
(0.389195 -0.050127 0)
(0.365859 -0.0438027 0)
(0.34531 -0.0381927 0)
(0.327237 -0.0333446 0)
(0.311299 -0.029278 0)
(0.297146 -0.0259974 0)
(0.284414 -0.023502 0)
(0.272736 -0.0217912 0)
(0.261737 -0.0208687 0)
(0.251034 -0.0207434 0)
(0.240234 -0.0214276 0)
(0.228934 -0.0229314 0)
(0.216723 -0.0252522 0)
(0.203186 -0.0283539 0)
(0.187923 -0.0321358 0)
(0.170577 -0.0363843 0)
(0.150887 -0.0407092 0)
(0.128778 -0.0444705 0)
(0.104483 -0.0467256 0)
(0.0787112 -0.0462497 0)
(0.0528329 -0.041732 0)
(0.0290801 -0.032295 0)
(0.0107303 -0.0185275 0)
(0.000685099 -0.00419989 0)
(0.645031 -0.0439913 0)
(0.61399 -0.0488221 0)
(0.57927 -0.0521672 0)
(0.542351 -0.0535606 0)
(0.50474 -0.0530511 0)
(0.467744 -0.0509587 0)
(0.43238 -0.0477135 0)
(0.399359 -0.0437505 0)
(0.369098 -0.0394453 0)
(0.341782 -0.0350892 0)
(0.317417 -0.0308902 0)
(0.295883 -0.0269856 0)
(0.276975 -0.0234582 0)
(0.260437 -0.0203525 0)
(0.245983 -0.0176874 0)
(0.23331 -0.0154671 0)
(0.22211 -0.0136884 0)
(0.212074 -0.0123463 0)
(0.202888 -0.0114369 0)
(0.194242 -0.0109597 0)
(0.185819 -0.0109178 0)
(0.177298 -0.0113165 0)
(0.168353 -0.0121604 0)
(0.158655 -0.0134463 0)
(0.147882 -0.0151513 0)
(0.135733 -0.0172131 0)
(0.121965 -0.0195016 0)
(0.106441 -0.02178 0)
(0.0892153 -0.0236642 0)
(0.070635 -0.0245972 0)
(0.0514627 -0.0238775 0)
(0.0329665 -0.0208043 0)
(0.0169318 -0.0150329 0)
(0.00550587 -0.00726753 0)
(0.000138753 -0.000431784 0)
(0.430616 -0.0180124 0)
(0.407706 -0.0196833 0)
(0.382654 -0.0207867 0)
(0.356375 -0.0211225 0)
(0.329863 -0.020719 0)
(0.304003 -0.0197154 0)
(0.27948 -0.0182917 0)
(0.256761 -0.0166234 0)
(0.236106 -0.0148582 0)
(0.217609 -0.0131067 0)
(0.201241 -0.0114448 0)
(0.186887 -0.00991991 0)
(0.174379 -0.00855832 0)
(0.163518 -0.0073718 0)
(0.15409 -0.00636312 0)
(0.145876 -0.00553017 0)
(0.138654 -0.0048689 0)
(0.132209 -0.00437522 0)
(0.126325 -0.00404627 0)
(0.120788 -0.00388094 0)
(0.115383 -0.0038801 0)
(0.109892 -0.00404596 0)
(0.104097 -0.00438102 0)
(0.0977758 -0.00488506 0)
(0.0907125 -0.00555051 0)
(0.0827102 -0.00635393 0)
(0.0736162 -0.00724369 0)
(0.0633642 -0.00812255 0)
(0.0520369 -0.00882892 0)
(0.0399476 -0.00912437 0)
(0.0277239 -0.00870612 0)
(0.0163582 -0.00727421 0)
(0.00715034 -0.00470271 0)
(0.00140957 -0.0014064 0)
(-0.000320127 0.000937353 0)
(0.161976 -0.00175276 0)
(0.152385 -0.00188522 0)
(0.142046 -0.00194414 0)
(0.131339 -0.00191918 0)
(0.120675 -0.00182416 0)
(0.110406 -0.00168023 0)
(0.100791 -0.00150863 0)
(0.0919954 -0.00132741 0)
(0.084096 -0.00114969 0)
(0.0771053 -0.000983855 0)
(0.0709893 -0.000834477 0)
(0.0656844 -0.000703542 0)
(0.0611101 -0.000591355 0)
(0.0571779 -0.000497259 0)
(0.0537968 -0.000420112 0)
(0.0508768 -0.000358624 0)
(0.04833 -0.000311602 0)
(0.0460713 -0.000278057 0)
(0.0440175 -0.000257313 0)
(0.0420866 -0.000249019 0)
(0.0401968 -0.000253186 0)
(0.038265 -0.000270147 0)
(0.0362069 -0.000300504 0)
(0.0339364 -0.000344916 0)
(0.0313681 -0.000403674 0)
(0.0284226 -0.000475905 0)
(0.0250368 -0.000558134 0)
(0.0211825 -0.000642104 0)
(0.0168961 -0.000711916 0)
(0.0123174 -0.000741452 0)
(0.00773348 -0.000693588 0)
(0.00360952 -0.000523699 0)
(0.000560185 -0.00019564 0)
(-0.000855817 0.000251846 0)
(-0.000518603 0.000521198 0)
(0.18779 -0.00158244 0)
(0.196249 -0.00094926 0)
(0.201715 -0.000327926 0)
(0.204246 0.000212644 0)
(0.204156 0.000650323 0)
(0.201848 0.000993456 0)
(0.197688 0.0012663 0)
(0.191941 0.00149813 0)
(0.184761 0.00171004 0)
(0.176233 0.00190507 0)
(0.472353 -0.0190826 0)
(0.493847 -0.0136613 0)
(0.508713 -0.00795309 0)
(0.516952 -0.00259051 0)
(0.519138 0.00210902 0)
(0.516057 0.00609293 0)
(0.508444 0.00948779 0)
(0.496829 0.0124924 0)
(0.481502 0.0152731 0)
(0.4626 0.0178649 0)
(0.679701 -0.04919 0)
(0.710396 -0.0364512 0)
(0.732121 -0.0228844 0)
(0.745049 -0.0099848 0)
(0.750067 0.00148397 0)
(0.748235 0.0113747 0)
(0.740464 0.0199683 0)
(0.727322 0.027735 0)
(0.708988 0.0350836 0)
(0.68538 0.0421134 0)
(0.820595 -0.0879335 0)
(0.856159 -0.0658187 0)
(0.880847 -0.04252 0)
(0.89565 -0.0206118 0)
(0.902158 -0.00127432 0)
(0.901821 0.0153972 0)
(0.895641 0.0300175 0)
(0.884023 0.0435243 0)
(0.866747 0.0567295 0)
(0.843115 0.0698765 0)
(0.903129 -0.130328 0)
(0.938275 -0.0967077 0)
(0.960598 -0.0625233 0)
(0.973045 -0.0314992 0)
(0.978455 -0.00487403 0)
(0.978761 0.0177145 0)
(0.974948 0.0375951 0)
(0.967047 0.0564819 0)
(0.954136 0.0758795 0)
(0.934435 0.0963556 0)
(0.931543 -0.171124 0)
(0.959314 -0.12307 0)
(0.972455 -0.0774818 0)
(0.977608 -0.038743 0)
(0.979139 -0.00721046 0)
(0.979155 0.0186863 0)
(0.978308 0.0414999 0)
(0.976044 0.0641041 0)
(0.970551 0.0891196 0)
(0.958455 0.117895 0)
(0.904903 -0.20304 0)
(0.915635 -0.136826 0)
(0.911771 -0.0810711 0)
(0.905514 -0.0384734 0)
(0.901703 -0.00658181 0)
(0.901451 0.0183465 0)
(0.904532 0.0404189 0)
(0.909787 0.063872 0)
(0.914778 0.0929643 0)
(0.914191 0.131015 0)
(0.815111 -0.214905 0)
(0.795688 -0.127798 0)
(0.768576 -0.0677787 0)
(0.750634 -0.0288595 0)
(0.74301 -0.00306666 0)
(0.743827 0.0158091 0)
(0.751663 0.0329396 0)
(0.765382 0.0534023 0)
(0.783352 0.0834947 0)
(0.798775 0.131476 0)
(0.641669 -0.192717 0)
(0.578826 -0.0891976 0)
(0.531652 -0.0387516 0)
(0.509732 -0.0134775 0)
(0.503121 0.000631589 0)
(0.5063 0.0102098 0)
(0.517448 0.019604 0)
(0.536783 0.0331744 0)
(0.56679 0.0583958 0)
(0.602288 0.112724 0)
(0.329618 -0.120726 0)
(0.2424 -0.0251779 0)
(0.202164 -0.00533196 0)
(0.191068 -0.00093238 0)
(0.189549 0.000912968 0)
(0.19304 0.0020996 0)
(0.200979 0.00355991 0)
(0.214921 0.00667679 0)
(0.242977 0.0180205 0)
(0.287917 0.0696995 0)
(0.166471 0.00206327 0)
(0.155715 0.00214969 0)
(0.14435 0.00214675 0)
(0.132824 0.00206366 0)
(0.121546 0.0019214 0)
(0.110841 0.00174224 0)
(0.10093 0.00154571 0)
(0.0919423 0.00134764 0)
(0.0839268 0.00115888 0)
(0.0768724 0.000986181 0)
(0.0707278 0.00083268 0)
(0.065417 0.000699532 0)
(0.0608508 0.000586259 0)
(0.0569348 0.000491878 0)
(0.0535741 0.000414819 0)
(0.0506762 0.000353733 0)
(0.0481515 0.000307172 0)
(0.045914 0.000274201 0)
(0.0438799 0.000253971 0)
(0.041967 0.000246225 0)
(0.0400934 0.000250832 0)
(0.0381761 0.000268231 0)
(0.0361308 0.000298907 0)
(0.0338717 0.000343629 0)
(0.0313136 0.000402609 0)
(0.0283771 0.000475044 0)
(0.0249993 0.000557345 0)
(0.0211525 0.000641301 0)
(0.016873 0.000711075 0)
(0.0123008 0.000740656 0)
(0.00772321 0.000692799 0)
(0.0036047 0.000523142 0)
(0.000559281 0.000194999 0)
(-0.000854738 -0.000251968 0)
(-0.00051787 -0.000520539 0)
(0.440317 0.0201169 0)
(0.415162 0.021743 0)
(0.388034 0.0225421 0)
(0.360016 0.0225012 0)
(0.332142 0.02174 0)
(0.305267 0.0204356 0)
(0.280022 0.0187764 0)
(0.25681 0.0169328 0)
(0.235837 0.0150422 0)
(0.217148 0.013204 0)
(0.200676 0.0114842 0)
(0.18628 0.00992212 0)
(0.17377 0.00853775 0)
(0.162932 0.0073383 0)
(0.153542 0.00632324 0)
(0.145372 0.00548817 0)
(0.1382 0.00482742 0)
(0.131803 0.00433585 0)
(0.125966 0.00400984 0)
(0.120472 0.00384783 0)
(0.115106 0.00385035 0)
(0.109652 0.00401946 0)
(0.103889 0.00435747 0)
(0.0975965 0.00486415 0)
(0.0905591 0.00553181 0)
(0.08258 0.00633707 0)
(0.0735071 0.00722824 0)
(0.0632746 0.00810821 0)
(0.0519655 0.0088154 0)
(0.0398936 0.00911172 0)
(0.0276864 0.00869453 0)
(0.0163357 0.00726471 0)
(0.00714032 0.00469668 0)
(0.00140686 0.00140434 0)
(-0.000319166 -0.000936277 0)
(0.656481 0.048439 0)
(0.622849 0.0532833 0)
(0.585766 0.0560738 0)
(0.546847 0.0567157 0)
(0.507634 0.0554567 0)
(0.469409 0.0527083 0)
(0.433143 0.0489313 0)
(0.399483 0.0445592 0)
(0.368793 0.0399514 0)
(0.341204 0.035379 0)
(0.316682 0.0310301 0)
(0.295072 0.027025 0)
(0.276146 0.0234329 0)
(0.259627 0.0202878 0)
(0.245214 0.0176008 0)
(0.232596 0.0153703 0)
(0.221458 0.0135893 0)
(0.211485 0.0122497 0)
(0.202362 0.0113458 0)
(0.193775 0.0108756 0)
(0.185407 0.0108413 0)
(0.176937 0.0112477 0)
(0.168037 0.0120988 0)
(0.158381 0.0133913 0)
(0.147645 0.0151019 0)
(0.13553 0.0171685 0)
(0.121792 0.0194606 0)
(0.106297 0.0217418 0)
(0.0890974 0.0236281 0)
(0.070543 0.0245629 0)
(0.0513957 0.0238457 0)
(0.0329232 0.020777 0)
(0.0169088 0.0150124 0)
(0.00549766 0.00725673 0)
(0.000138887 0.000430558 0)
(0.812473 0.0821868 0)
(0.775202 0.0919615 0)
(0.733012 0.0979929 0)
(0.688089 0.100075 0)
(0.642406 0.098644 0)
(0.597545 0.0944272 0)
(0.554693 0.0882452 0)
(0.514648 0.0808734 0)
(0.477875 0.0729597 0)
(0.444574 0.064999 0)
(0.414751 0.0573427 0)
(0.388272 0.0502233 0)
(0.364911 0.0437829 0)
(0.344377 0.0380993 0)
(0.326345 0.033208 0)
(0.310465 0.0291191 0)
(0.296377 0.0258306 0)
(0.283715 0.0233365 0)
(0.272107 0.0216329 0)
(0.261174 0.020721 0)
(0.250533 0.0206079 0)
(0.239791 0.0213047 0)
(0.228544 0.0228209 0)
(0.216381 0.0251529 0)
(0.202887 0.0282646 0)
(0.187662 0.0320547 0)
(0.170351 0.0363098 0)
(0.150695 0.0406394 0)
(0.128618 0.0444041 0)
(0.104354 0.0466617 0)
(0.0786134 0.0461894 0)
(0.0527659 0.0416777 0)
(0.0290423 0.0322525 0)
(0.0107153 0.0185013 0)
(0.000684785 0.00419342 0)
(0.906022 0.116505 0)
(0.868915 0.132842 0)
(0.825597 0.143181 0)
(0.779027 0.14731 0)
(0.731508 0.146009 0)
(0.684724 0.140436 0)
(0.639885 0.131848 0)
(0.597789 0.121401 0)
(0.558901 0.110052 0)
(0.523439 0.0985288 0)
(0.491438 0.0873549 0)
(0.462802 0.0768849 0)
(0.43734 0.0673447 0)
(0.414792 0.0588672 0)
(0.394853 0.0515233 0)
(0.377184 0.045345 0)
(0.361426 0.0403438 0)
(0.347203 0.0365236 0)
(0.334128 0.033889 0)
(0.321798 0.0324503 0)
(0.3098 0.0322257 0)
(0.297701 0.0332394 0)
(0.285052 0.035514 0)
(0.271382 0.0390567 0)
(0.256205 0.0438329 0)
(0.239023 0.0497225 0)
(0.219349 0.0564544 0)
(0.196749 0.0635125 0)
(0.170923 0.0700209 0)
(0.141837 0.0746341 0)
(0.109943 0.0754979 0)
(0.0765053 0.0704163 0)
(0.0441029 0.0574479 0)
(0.0174164 0.0363095 0)
(0.00140086 0.0109742 0)
(0.935588 0.14806 0)
(0.901486 0.172493 0)
(0.86035 0.187739 0)
(0.816242 0.194047 0)
(0.771527 0.192886 0)
(0.727648 0.186006 0)
(0.685581 0.17515 0)
(0.645941 0.161844 0)
(0.609083 0.147309 0)
(0.575188 0.132467 0)
(0.544313 0.117986 0)
(0.516417 0.104328 0)
(0.491377 0.0917991 0)
(0.469003 0.080592 0)
(0.449052 0.0708205 0)
(0.431243 0.0625486 0)
(0.415259 0.0558119 0)
(0.40076 0.0506335 0)
(0.387382 0.0470352 0)
(0.374737 0.0450451 0)
(0.362417 0.0447005 0)
(0.349989 0.0460477 0)
(0.336989 0.0491345 0)
(0.32292 0.0539954 0)
(0.307247 0.0606217 0)
(0.28939 0.068911 0)
(0.268733 0.0785862 0)
(0.244638 0.0890736 0)
(0.216501 0.0993351 0)
(0.183875 0.107668 0)
(0.14671 0.111531 0)
(0.105813 0.107532 0)
(0.0637908 0.0919274 0)
(0.0268191 0.0623153 0)
(0.0025735 0.0217341 0)
(0.899982 0.174428 0)
(0.871048 0.20822 0)
(0.83536 0.22805 0)
(0.798257 0.235906 0)
(0.761423 0.234491 0)
(0.725551 0.226287 0)
(0.691119 0.213482 0)
(0.658424 0.197857 0)
(0.627654 0.180783 0)
(0.598952 0.163284 0)
(0.572417 0.146115 0)
(0.548092 0.129814 0)
(0.525958 0.114755 0)
(0.505933 0.101189 0)
(0.48788 0.08928 0)
(0.471609 0.0791337 0)
(0.456887 0.0708209 0)
(0.443443 0.0643947 0)
(0.430974 0.0599046 0)
(0.419144 0.0574052 0)
(0.407587 0.0569625 0)
(0.395902 0.0586548 0)
(0.383649 0.0625681 0)
(0.370343 0.0687827 0)
(0.355436 0.0773449 0)
(0.338305 0.0882158 0)
(0.318232 0.101183 0)
(0.294389 0.115719 0)
(0.265844 0.130762 0)
(0.231625 0.144403 0)
(0.190906 0.153496 0)
(0.143513 0.153266 0)
(0.091294 0.1373 0)
(0.0414642 0.0990503 0)
(0.00479362 0.0381154 0)
(0.797518 0.193871 0)
(0.776222 0.237261 0)
(0.750709 0.259779 0)
(0.726715 0.267725 0)
(0.703721 0.265508 0)
(0.6812 0.256211 0)
(0.659094 0.242205 0)
(0.637436 0.225277 0)
(0.616333 0.206768 0)
(0.59597 0.187698 0)
(0.576553 0.168842 0)
(0.558262 0.150785 0)
(0.541222 0.133957 0)
(0.525491 0.118669 0)
(0.511065 0.105144 0)
(0.497876 0.0935401 0)
(0.4858 0.0839744 0)
(0.474667 0.0765415 0)
(0.464261 0.0713279 0)
(0.454329 0.0684243 0)
(0.444577 0.0679328 0)
(0.434673 0.0699723 0)
(0.424239 0.0746775 0)
(0.412843 0.08219 0)
(0.399975 0.0926366 0)
(0.38503 0.106085 0)
(0.367258 0.122463 0)
(0.34572 0.141412 0)
(0.319222 0.162045 0)
(0.286272 0.182539 0)
(0.245089 0.199498 0)
(0.193875 0.207003 0)
(0.132241 0.195448 0)
(0.0665786 0.151292 0)
(0.00958717 0.0644337 0)
(0.625706 0.204001 0)
(0.617636 0.25424 0)
(0.611117 0.275997 0)
(0.608795 0.282738 0)
(0.606188 0.280018 0)
(0.601917 0.270819 0)
(0.595918 0.257186 0)
(0.588334 0.24061 0)
(0.579444 0.222257 0)
(0.569637 0.203072 0)
(0.559319 0.183829 0)
(0.548857 0.165151 0)
(0.538546 0.147532 0)
(0.528605 0.131351 0)
(0.519172 0.1169 0)
(0.510313 0.104401 0)
(0.502029 0.0940308 0)
(0.494262 0.0859333 0)
(0.486904 0.0802409 0)
(0.479804 0.0770859 0)
(0.472768 0.0766122 0)
(0.465562 0.078983 0)
(0.457905 0.0843856 0)
(0.449461 0.0930294 0)
(0.439823 0.105134 0)
(0.428477 0.120898 0)
(0.414758 0.14044 0)
(0.39777 0.16368 0)
(0.376271 0.190111 0)
(0.348503 0.218398 0)
(0.311933 0.245605 0)
(0.262922 0.265787 0)
(0.197057 0.267375 0)
(0.11516 0.228841 0)
(0.0277895 0.118402 0)
(0.385282 0.202882 0)
(0.405694 0.246645 0)
(0.432633 0.265368 0)
(0.460951 0.272837 0)
(0.483462 0.272537 0)
(0.500043 0.266377 0)
(0.511719 0.255738 0)
(0.519303 0.241766 0)
(0.523543 0.22549 0)
(0.525162 0.207841 0)
(0.524815 0.189635 0)
(0.523067 0.171569 0)
(0.520376 0.154219 0)
(0.517104 0.138053 0)
(0.513521 0.123444 0)
(0.509818 0.11069 0)
(0.506112 0.100031 0)