/*--------------------------------*- C++ -*----------------------------------*\
| =========                 |                                                 |
| \\      /  F ield         | OpenFOAM: The Open Source CFD Toolbox           |
|  \\    /   O peration     | Version:  2406                                  |
|   \\  /    A nd           | Website:  www.openfoam.com                      |
|    \\/     M anipulation  |                                                 |
\*---------------------------------------------------------------------------*/
FoamFile
{
    version     2.0;
    format      ascii;
    arch        "LSB;label=32;scalar=64";
    class       volScalarField;
    location    "46";
    object      p;
}
// * * * * * * * * * * * * * * * * * * * * * * * * * * * * * * * * * * * * * //

dimensions      [0 2 -2 0 0 0 0];

internalField   nonuniform List<scalar> 
1900
(
16.8197
10.5449
6.18782
3.95627
2.35542
0.947973
-0.278132
-1.39957
-2.52212
-3.77762
10.3848
8.04883
5.71411
4.02801
2.60719
1.28023
0.0687264
-1.04312
-2.10395
-3.12139
7.99386
7.26873
5.89511
4.45268
3.12346
1.87141
0.69812
-0.373437
-1.32739
-2.12378
7.17453
6.81264
5.8527
4.63994
3.44917
2.31758
1.24369
0.255748
-0.610837
-1.31932
6.84988
6.55287
5.78624
4.74345
3.66233
2.61728
1.61994
0.701499
-0.0989383
-0.75393
6.9393
6.64637
5.88957
4.86422
3.80898
2.79875
1.84609
0.981107
0.236128
-0.37344
7.43655
7.0869
6.15775
5.00058
3.89214
2.8709
1.93634
1.11395
0.421538
-0.142044
8.41349
7.7085
6.39302
5.05412
3.87251
2.81521
1.88838
1.1112
0.475361
-0.0403365
10.9562
8.65444
6.40944
4.86586
3.63757
2.56379
1.67766
0.972755
0.403187
-0.0661474
17.5116
11.2626
6.99437
4.90221
3.49324
2.34769
1.46854
0.801623
0.26908
-0.172224
-2.72505
-2.74414
-2.75476
-2.74691
-2.72084
-2.67745
-2.61683
-2.53869
-2.44257
-2.32808
-2.19505
-2.04364
-1.87431
-1.68789
-1.48558
-1.26895
-1.03989
-0.800613
-0.553615
-0.301597
-0.0474079
0.206037
0.455835
0.699181
0.933442
1.15623
1.36545
1.55937
1.73661
1.89621
2.03758
2.16053
2.26517
2.35194
2.42153
2.47488
2.51306
2.53729
2.54884
2.54902
2.53914
2.52047
2.49421
2.46149
2.42337
2.38078
2.33457
2.28549
2.23418
2.18119
2.127
2.07198
2.01647
1.96071
1.90489
1.84918
1.79367
1.73845
1.68356
1.62902
1.57484
1.521
1.46748
1.41425
1.36127
1.30851
1.25592
1.20345
1.15107
1.09873
1.04639
0.99402
0.94158
0.889043
0.836382
0.783576
0.730605
0.677454
0.624114
0.570576
0.516837
0.462898
0.408762
0.354435
0.29993
0.245263
0.190465
0.135546
0.0804352
0.0257189
-2.70386
-2.72333
-2.73182
-2.722
-2.69593
-2.6542
-2.59622
-2.5212
-2.42846
-2.31748
-2.18803
-2.04022
-1.87449
-1.69163
-1.4928
-1.27951
-1.05361
-0.817282
-0.572988
-0.323412
-0.0713771
0.180213
0.428465
0.670568
0.903875
1.12598
1.33477
1.5285
1.70582
1.86569
2.00748
2.13095
2.23627
2.32386
2.39441
2.44883
2.48819
2.5137
2.52659
2.52818
2.51973
2.5025
2.47769
2.44641
2.40968
2.36844
2.32353
2.27567
2.22551
2.1736
2.12039
2.06629
2.0116
1.95658
1.90144
1.84631
1.79133
1.73657
1.68207
1.62787
1.57398
1.52039
1.46707
1.41402
1.36119
1.30854
1.25604
1.20365
1.15133
1.09903
1.04673
0.994384
0.941966
0.889446
0.836799
0.784004
0.731044
0.677905
0.624576
0.571051
0.517326
0.463403
0.409285
0.354979
0.300497
0.245846
0.191037
0.13611
0.0808212
0.0255765
-2.69583
-2.71783
-2.7261
-2.71524
-2.68974
-2.65003
-2.5949
-2.52312
-2.4337
-2.32601
-2.19975
-2.05497
-1.89207
-1.71184
-1.51537
-1.30413
-1.08
-0.845147
-0.602036
-0.353371
-0.102004
0.149139
0.397126
0.639131
0.872505
1.09482
1.30392
1.49795
1.67556
1.83578
1.97802
2.10202
2.20794
2.29619
2.36748
2.42272
2.46299
2.48946
2.5034
2.5061
2.49883
2.48283
2.45928
2.42928
2.39385
2.3539
2.31026
2.26364
2.21468
2.16392
2.11181
2.05873
2.005
1.95087
1.89654
1.84217
1.78786
1.7337
1.67975
1.62603
1.57256
1.51933
1.46634
1.41356
1.36096
1.30852
1.25619
1.20394
1.15173
1.09953
1.0473
0.995017
0.942647
0.890163
0.837543
0.784769
0.731823
0.678693
0.62537
0.571848
0.518124
0.4642
0.410078
0.355767
0.301273
0.246599
0.191745
0.13675
0.0813423
0.0253245
-2.72234
-2.74574
-2.75374
-2.74206
-2.71681
-2.67825
-2.62467
-2.55451
-2.46662
-2.36031
-2.23521
-2.09137
-1.92915
-1.74929
-1.55293
-1.34156
-1.11706
-0.881648
-0.637813
-0.388281
-0.135944
0.116242
0.365265
0.608173
0.842279
1.06518
1.27475
1.4692
1.64714
1.80758
1.94995
2.07405
2.18004
2.26839
2.33981
2.39526
2.43583
2.46272
2.47721
2.48058
2.4741
2.45902
2.43651
2.40763
2.37341
2.33473
2.29239
2.24711
2.19948
2.15004
2.09923
2.04741
1.99489
1.9419
1.88865
1.83528
1.78191
1.72861
1.67544
1.62244
1.56961
1.51695
1.46447
1.41214
1.35993
1.30782
1.25579
1.20378
1.15179
1.09976
1.04768
0.99552
0.943245
0.890837
0.838275
0.785543
0.732627
0.679515
0.626201
0.572679
0.518948
0.465009
0.410866
0.356522
0.301984
0.247248
0.192311
0.137177
0.0816633
0.0248631
-2.79605
-2.81504
-2.81765
-2.80152
-2.77335
-2.73279
-2.67765
-2.60614
-2.51703
-2.40952
-2.28323
-2.13815
-1.97464
-1.79342
-1.59563
-1.38277
-1.15673
-0.919838
-0.674653
-0.423903
-0.170524
0.0824619
0.332061
0.575358
0.809637
1.03245
1.24167
1.43556
1.61277
1.77238
1.91388
2.03712
2.14232
2.23
2.30094
2.35611
2.39663
2.42373
2.43868
2.44277
2.43727
2.42338
2.40225
2.37494
2.34242
2.30556
2.26512
2.22178
2.17612
2.12863
2.07974
2.02979
1.97907
1.92781
1.87619
1.82435
1.7724
1.72041
1.66845
1.61654
1.5647
1.51294
1.46125
1.40962
1.35803
1.30646
1.25488
1.20328
1.15162
1.09987
1.04802
0.996046
0.94392
0.891626
0.839149
0.786476
0.733597
0.680503
0.627189
0.573654
0.519896
0.465918
0.411724
0.357316
0.302698
0.247862
0.192811
0.137519
0.0819299
0.0243869
-2.92691
-2.92957
-2.91498
-2.88549
-2.84752
-2.79948
-2.73832
-2.66183
-2.56851
-2.45737
-2.32793
-2.1802
-2.01441
-1.83113
-1.63151
-1.41708
-1.18974
-0.951767
-0.705756
-0.454536
-0.201103
0.0514845
0.300209
0.542181
0.774728
0.995464
1.20234
1.39371
1.56833
1.72538
1.86443
1.98543
2.08869
2.17479
2.24454
2.29896
2.33919
2.36647
2.38204
2.38718
2.38312
2.37102
2.35199
2.32704
2.29708
2.26292
2.22529
2.18481
2.14203
2.0974
2.05131
2.00409
1.95598
1.90721
1.85794
1.8083
1.7584
1.70831
1.65808
1.60775
1.55735
1.50687
1.45632
1.40571
1.35501
1.30422
1.25332
1.20229
1.15111
1.09978
1.04826
0.996558
0.944647
0.892518
0.840162
0.787573
0.734743
0.68167
0.628353
0.574792
0.52099
0.46695
0.412679
0.358178
0.303452
0.248492
0.193312
0.13786
0.0822147
0.0240295
-3.12558
-3.089
-3.03472
-2.97655
-2.91899
-2.85726
-2.78629
-2.7026
-2.60392
-2.4888
-2.35625
-2.20581
-2.0376
-1.8523
-1.65108
-1.43554
-1.20766
-0.969785
-0.724552
-0.474813
-0.223561
0.0261679
0.2714
0.509319
0.737352
0.953237
1.15507
1.34136
1.511
1.66333
1.79805
1.91523
2.01526
2.0988
2.16671
2.22002
2.25988
2.28749
2.30407
2.31084
2.30895
2.29952
2.28355
2.26199
2.23567
2.20533
2.17163
2.13512
2.09631
2.05559
2.01331
1.96976
1.92517
1.87974
1.83361
1.78691
1.73974
1.69216
1.64423
1.59599
1.54747
1.49869
1.44966
1.40038
1.35087
1.3011
1.25108
1.20081
1.15028
1.09948
1.04841
0.99706
0.945431
0.893519
0.841322
0.788839
0.736073
0.683026
0.629701
0.576104
0.522242
0.468121
0.413749
0.359132
0.304275
0.249174
0.193849
0.138244
0.0825331
0.0239018
-3.43487
-3.29508
-3.15482
-3.04898
-2.96448
-2.88597
-2.80452
-2.71444
-2.61147
-2.49298
-2.35766
-2.20504
-2.03525
-1.84896
-1.64742
-1.43234
-1.20581
-0.970242
-0.728295
-0.482816
-0.236754
0.00693326
0.245381
0.475916
0.696136
0.903973
1.09774
1.27613
1.43829
1.5837
1.71225
1.82413
1.91983
2.00006
2.06571
2.11783
2.1575
2.18589
2.20414
2.21336
2.21462
2.20892
2.19716
2.18018
2.15871
2.1334
2.10481
2.07345
2.03971
2.00397
1.96651
1.92758
1.88739
1.84612
1.80389
1.76082
1.717
1.67251
1.62739
1.58171
1.5355
1.48879
1.4416
1.39395
1.34586
1.29733
1.24838
1.19903
1.14927
1.09911
1.04857
0.997652
0.946361
0.894705
0.842694
0.790337
0.737642
0.68462
0.631281
0.577636
0.523696
0.469474
0.414979
0.360223
0.305215
0.249954
0.194474
0.138713
0.0828989
0.0241095
-4.06434
-3.577
-3.24431
-3.0783
-2.96949
-2.8751
-2.78525
-2.69134
-2.58561
-2.46455
-2.32732
-2.17366
-2.00366
-1.81798
-1.61796
-1.40549
-1.18278
-0.952334
-0.716791
-0.478931
-0.241582
-0.00754193
0.220515
0.440136
0.649165
0.845796
1.02861
1.19656
1.34903
1.48571
1.60667
1.71222
1.80293
1.87954
1.94296
1.99417
2.03419
2.06408
2.08487
2.09755
2.10305
2.10222
2.09584
2.08462
2.06915
2.05
2.02762
2.00242
1.97474
1.94489
1.9131
1.87958
1.84453
1.80807
1.77034
1.73145
1.69148
1.65051
1.60861
1.56584
1.52225
1.47788
1.43276
1.38694
1.34045
1.29331
1.24557
1.19723
1.14833
1.0989
1.04894
0.998494
0.947572
0.896195
0.844383
0.792156
0.739531
0.686527
0.633161
0.579452
0.525416
0.471071
0.416432
0.361515
0.306333
0.250895
0.195234
0.13932
0.0833371
0.0247272
-5.14127
-3.92838
-3.29295
-3.07674
-2.95187
-2.83626
-2.73288
-2.6338
-2.52571
-2.40276
-2.26433
-2.11068
-1.94197
-1.75882
-1.56263
-1.35544
-1.13957
-0.917522
-0.691875
-0.465246
-0.240255
-0.01945
0.194772
0.400253
0.595144
0.777953
0.947558
1.10322
1.24453
1.37142
1.4841
1.58297
1.66867
1.74192
1.80358
1.85455
1.89573
1.92804
1.95237
1.96953
1.98029
1.98535
1.98534
1.98081
1.97225
1.96008
1.94468
1.92636
1.9054
1.88202
1.85644
1.82882
1.79932
1.76808
1.73519
1.70078
1.66493
1.62773
1.58925
1.54957
1.50874
1.46684
1.42391
1.38001
1.3352
1.28953
1.24303
1.19576
1.14776
1.09906
1.04971
0.999745
0.949196
0.898097
0.846479
0.794373
0.741805
0.688804
0.635395
0.581603
0.527451
0.472961
0.418156
0.363056
0.30768
0.252042
0.196183
0.1401
0.0838744
0.0257758
-4.58731
-3.79881
-3.18675
-2.98717
-2.87837
-2.75807
-2.64468
-2.5401
-2.43003
-2.30637
-2.16822
-2.01628
-1.85095
-1.67289
-1.48351
-1.28486
-1.07925
-0.869127
-0.656889
-0.444925
-0.235566
-0.0310418
0.166592
0.355525
0.534254
0.701619
0.85681
0.999353
1.12908
1.24608
1.35067
1.44332
1.52463
1.5953
1.65608
1.70774
1.75102
1.78669
1.81543
1.83789
1.85467
1.86629
1.87324
1.87592
1.8747
1.86988
1.86176
1.85056
1.8365
1.81976
1.80049
1.77886
1.75497
1.72896
1.70095
1.67102
1.63928
1.60583
1.57075
1.53412
1.49604
1.45657
1.4158
1.3738
1.33065
1.2864
1.24113
1.1949
1.14776
1.09978
1.05101
1.00151
0.951306
0.900462
0.849017
0.79701
0.744479
0.691461
0.637988
0.584093
0.529805
0.475152
0.420162
0.364859
0.30927
0.253416
0.19733
0.141069
0.0845372
0.0271997
-3.65442
-3.34052
-2.95308
-2.79286
-2.70806
-2.60781
-2.50155
-2.39879
-2.29145
-2.17195
-2.03871
-1.89256
-1.73434
-1.56501
-1.38607
-1.19952
-1.00763
-0.812653
-0.616786
-0.422137
-0.230716
-0.0443991
0.135122
0.306402
0.468287
0.619934
0.760812
0.890675
1.00952
1.11755
1.21511
1.30268
1.38078
1.45002
1.51099
1.56431
1.61055
1.65027
1.684
1.7122
1.73529
1.75365
1.7676
1.77744
1.78343
1.78577
1.78467
1.78031
1.77283
1.76238
1.74909
1.73308
1.71447
1.69337
1.6699
1.64415
1.61624
1.58627
1.55435
1.52056
1.48502
1.44782
1.40904
1.3688
1.32716
1.28423
1.24008
1.1948
1.14845
1.10112
1.05287
1.00377
0.953875
0.903248
0.851941
0.800004
0.747485
0.694428
0.640873
0.586858
0.532419
0.47759
0.422401
0.366884
0.311068
0.254982
0.198657
0.142202
0.0853314
0.0288611
-2.60811
-2.66995
-2.55763
-2.48517
-2.44212
-2.38044
-2.30002
-2.212
-2.11603
-2.00767
-1.88537
-1.75003
-1.6031
-1.44611
-1.28082
-1.10927
-0.93358
-0.755832
-0.577981
-0.401848
-0.229118
-0.0613226
0.100204
0.254355
0.40029
0.537433
0.665467
0.784295
0.894006
0.994825
1.08708
1.17116
1.2475
1.31654
1.37872
1.43448
1.48423
1.52834
1.56716
1.60101
1.63016
1.65485
1.6753
1.69169
1.7042
1.71297
1.71814
1.71983
1.71817
1.71325
1.70519
1.69409
1.68008
1.66325
1.64373
1.62162
1.59704
1.5701
1.54092
1.5096
1.47626
1.44101
1.40397
1.36523
1.32491
1.28311
1.23993
1.19545
1.14978
1.103
1.05518
1.00642
0.956769
0.90631
0.855103
0.803206
0.750676
0.697561
0.643911
0.589767
0.535171
0.48016
0.42477
0.369034
0.312988
0.256665
0.200093
0.143435
0.0862406
0.0305534
-1.81354
-2.05117
-2.11661
-2.13446
-2.14008
-2.11982
-2.07253
-2.00752
-1.92893
-1.83593
-1.72804
-1.60656
-1.47352
-1.33101
-1.18111
-1.02584
-0.867204
-0.707055
-0.547099
-0.388881
-0.233784
-0.0830301
0.0623481
0.201524
0.333893
0.459064
0.576843
0.687194
0.790211
0.886072
0.975021
1.05733
1.13329
1.20318
1.2673
1.32592
1.3793
1.42765
1.4712
1.51012
1.54458
1.57473
1.6007
1.62261
1.64056
1.65464
1.66497
1.67162
1.67468
1.67424
1.67041
1.6633
1.65301
1.63965
1.62333
1.60416
1.58228
1.55778
1.53081
1.50149
1.46993
1.43627
1.40062
1.3631
1.32384
1.28295
1.24054
1.19671
1.15157
1.10522
1.05775
1.00924
0.959777
0.909437
0.858294
0.806411
0.753851
0.700669
0.646919
0.592647
0.537898
0.482712
0.427129
0.371183
0.314914
0.258359
0.201545
0.144676
0.0872133
0.0320427
-1.24118
-1.54879
-1.71418
-1.80389
-1.85418
-1.86992
-1.85377
-1.81327
-1.75394
-1.67759
-1.58526
-1.47882
-1.36075
-1.23346
-1.09919
-0.959921
-0.817502
-0.673577
-0.529635
-0.386978
-0.24677
-0.109989
0.0225311
0.150158
0.272408
0.388987
0.499716
0.604553
0.703516
0.796705
0.88423
0.966247
1.0429
1.11435
1.18075
1.24224
1.29895
1.35102
1.39854
1.44163
1.48037
1.51484
1.54513
1.57129
1.59341
1.61154
1.62576
1.63613
1.64273
1.64567
1.64503
1.64092
1.63342
1.62265
1.60873
1.59177
1.5719
1.54925
1.52394
1.49611
1.46588
1.43341
1.3988
1.36221
1.32374
1.28353
1.24169
1.19835
1.1536
1.10757
1.06034
1.01201
0.962676
0.912416
0.861302
0.809416
0.756814
0.703566
0.649718
0.595332
0.540442
0.485103
0.429343
0.373211
0.316734
0.259964
0.202918
0.145835
0.0881813
0.0331235
-0.842866
-1.17473
-1.3908
-1.5276
-1.6127
-1.65748
-1.66774
-1.64995
-1.60956
-1.54981
-1.47297
-1.38151
-1.2781
-1.16528
-1.04528
-0.920057
-0.791315
-0.660575
-0.52917
-0.39828
-0.268922
-0.14197
-0.0181411
0.101988
0.217986
0.329539
0.436443
0.538571
0.635863
0.728299
0.815894
0.89868
0.976703
1.05001
1.11867
1.18274
1.24227
1.29732
1.34794
1.39418
1.4361
1.47373
1.50712
1.53633
1.56139
1.58235
1.59928
1.61226
1.62135
1.62664
1.62821
1.62616
1.62059
1.61162
1.59935
1.58392
1.56544
1.54405
1.51989
1.49309
1.46379
1.43214
1.39825
1.36229
1.32437
1.28462
1.24318
1.20016
1.15568
1.10985
1.06278
1.01457
0.965309
0.915085
0.863983
0.812074
0.759432
0.706117
0.65219
0.597701
0.5427
0.487228
0.431326
0.375031
0.31838
0.261411
0.204153
0.146849
0.0890697
0.033675
-0.585165
-0.917781
-1.15586
-1.32107
-1.4323
-1.50074
-1.53315
-1.53528
-1.51218
-1.46767
-1.40482
-1.32651
-1.23555
-1.13448
-1.02554
-0.910662
-0.791516
-0.669598
-0.546196
-0.422471
-0.299398
-0.177843
-0.0584952
0.0580414
0.171326
0.280976
0.386739
0.488391
0.58581
0.678867
0.767517
0.851692
0.931394
1.00659
1.0773
1.14353
1.2053
1.26262
1.31552
1.36403
1.40817
1.44797
1.48348
1.5147
1.54171
1.56454
1.58327
1.59793
1.60863
1.61542
1.61841
1.61768
1.61334
1.60549
1.59428
1.5798
1.5622
1.5416
1.51817
1.49201
1.46329
1.43214
1.39871
1.36312
1.32553
1.28606
1.24486
1.20203
1.1577
1.11199
1.06501
1.01685
0.96762
0.917401
0.866291
0.814351
0.761669
0.708294
0.654304
0.599732
0.544647
0.489072
0.433064
0.37664
0.319852
0.26271
0.205263
0.147732
0.0898564
0.0337096
-0.453312
-0.776398
-1.02206
-1.20373
-1.33335
-1.4196
-1.46866
-1.4858
-1.47571
-1.44243
-1.3895
-1.32007
-1.23707
-1.14307
-1.04036
-0.930898
-0.816438
-0.698487
-0.578407
-0.457355
-0.336372
-0.216312
-0.0979381
0.0181537
0.131431
0.241505
0.348023
0.450746
0.549449
0.644
0.734259
0.820166
0.901639
0.978665
1.0512
1.11925
1.18279
1.24186
1.29645
1.34659
1.39228
1.43358
1.47048
1.50306
1.53133
1.55537
1.57521
1.59094
1.60261
1.61032
1.61414
1.61419
1.61056
1.60338
1.59275
1.57882
1.5617
1.54155
1.51849
1.49269
1.46426
1.43337
1.40015
1.36477
1.32732
1.28799
1.24687
1.20412
1.15984
1.11417
1.0672
1.01904
0.969796
0.919562
0.86841
0.816437
0.763698
0.710278
0.656219
0.601594
0.546432
0.490794
0.434697
0.378194
0.321294
0.264031
0.206415
0.148675
0.0906599
0.0333981
-0.4524
-0.76508
-1.01213
-1.20138
-1.34023
-1.4352
-1.49189
-1.51538
-1.51032
-1.48093
-1.43098
-1.36383
-1.28247
-1.18957
-1.08744
-0.97812
-0.863413
-0.744896
-0.623954
-0.501796
-0.379473
-0.257886
-0.137803
-0.0198724
0.0953693
0.207476
0.316091
0.420921
0.521741
0.618373
0.710686
0.798578
0.881982
0.960849
1.03515
1.10488
1.17002
1.23058
1.28658
1.33803
1.38495
1.42738
1.46535
1.4989
1.52808
1.55294
1.57354
1.58994
1.60223
1.61049
1.61482
1.6153
1.61207
1.60522
1.59489
1.58121
1.5643
1.54432
1.52141
1.49571
1.46737
1.43653
1.40335
1.36796
1.33052
1.29115
1.25
1.2072
1.16287
1.11712
1.07008
1.02184
0.972516
0.922194
0.870961
0.818899
0.766081
0.712574
0.658439
0.60373
0.548497
0.49278
0.436615
0.380035
0.323062
0.265702
0.207974
0.150042
0.0918297
0.0331535
-0.539701
-0.841829
-1.0844
-1.27248
-1.41125
-1.50609
-1.56226
-1.58478
-1.57835
-1.54726
-1.49538
-1.42612
-1.34252
-1.24724
-1.14263
-1.03077
-0.913482
-0.79236
-0.668803
-0.544032
-0.419104
-0.29493
-0.172287
-0.0518345
0.0658765
0.18039
0.291335
0.398412
0.501387
0.600077
0.694346
0.784093
0.869247
0.949762
1.02561
1.09678
1.16326
1.22507
1.28222
1.33474
1.38264
1.42596
1.46475
1.49904
1.52888
1.55432
1.57545
1.59232
1.60501
1.61362
1.61824
1.61897
1.61593
1.60924
1.59903
1.58542
1.56857
1.5486
1.52568
1.49994
1.47154
1.44063
1.40736
1.37188
1.33432
1.29484
1.25356
1.21063
1.16616
1.12028
1.0731
1.02474
0.975289
0.924844
0.873495
0.821321
0.768398
0.714792
0.660566
0.605773
0.550462
0.494675
0.438449
0.381812
0.324787
0.267381
0.209585
0.15143
0.0930325
0.0333095
)
;

boundaryField
{
    inlet
    {
        type            zeroGradient;
    }
    outlet
    {
        type            fixedValue;
        value           uniform 0;
    }
    upperWall
    {
        type            zeroGradient;
    }
    lowerWall
    {
        type            zeroGradient;
    }
    frontAndBack
    {
        type            empty;
    }
}


// ************************************************************************* //
