/*--------------------------------*- C++ -*----------------------------------*\
| =========                 |                                                 |
| \\      /  F ield         | OpenFOAM: The Open Source CFD Toolbox           |
|  \\    /   O peration     | Version:  2406                                  |
|   \\  /    A nd           | Website:  www.openfoam.com                      |
|    \\/     M anipulation  |                                                 |
\*---------------------------------------------------------------------------*/
FoamFile
{
    version     2.0;
    format      ascii;
    arch        "LSB;label=32;scalar=64";
    class       surfaceScalarField;
    location    "46";
    object      phi;
}
// * * * * * * * * * * * * * * * * * * * * * * * * * * * * * * * * * * * * * //

dimensions      [0 3 -1 0 0 0 0];

oriented        oriented;

internalField   nonuniform List<scalar> 
3680
(
0.442194
0.0578063
0.372811
0.0693829
0.315735
0.0570755
0.273841
0.0418934
0.24525
0.0285909
0.227472
0.0177781
0.218331
0.00914048
0.216582
0.00174905
0.22262
-0.00603851
-0.0219331
0.244553
0.534021
0.023785
0.548969
0.0544349
0.546563
0.0594812
0.53501
0.0534459
0.520505
0.0430961
0.507194
0.0310885
0.497398
0.0189361
0.492178
0.00696852
0.491672
-0.00553222
-0.020842
0.49058
0.514074
0.00971092
0.540172
0.0283365
0.564201
0.0354523
0.582521
0.0351258
0.594968
0.0306488
0.602754
0.0233024
0.607599
0.0140915
0.610832
0.00373535
0.612889
-0.00759012
-0.0202492
0.612296
0.50601
0.00370093
0.523712
0.0106345
0.545656
0.0135078
0.56785
0.0129321
0.588296
0.0102023
0.60588
0.00571861
0.620258
-0.000285909
0.631544
-0.00755164
0.639866
-0.0159115
-0.0252416
0.644858
0.504588
-0.000886623
0.517911
-0.0026894
0.53608
-0.00466067
0.555952
-0.00693962
0.575816
-0.00966224
0.594482
-0.0129469
0.611102
-0.0169061
0.625184
-0.0216333
0.636418
-0.027146
-0.0333347
0.644511
0.50453
-0.00541635
0.517718
-0.0158778
0.535707
-0.0226495
0.55538
-0.0266125
0.575
-0.0292818
0.593303
-0.0312499
0.609349
-0.032952
0.622585
-0.0348698
0.632727
-0.0372875
-0.0402195
0.639612
0.505872
-0.0112885
0.523255
-0.0332602
0.544698
-0.0440929
0.566086
-0.048001
0.585178
-0.0483737
0.600602
-0.0466739
0.611852
-0.0442012
0.619
-0.0420181
0.622328
-0.0406151
-0.0400331
0.622141
0.513973
-0.0252613
0.539469
-0.0587568
0.562061
-0.0666846
0.577672
-0.0636125
0.585753
-0.0564544
0.587247
-0.0481679
0.58372
-0.0406744
0.576574
-0.0348711
0.56677
-0.0308112
-0.0281794
0.554916
0.533633
-0.0588942
0.546786
-0.0719097
0.540839
-0.0607377
0.523758
-0.0465317
0.501604
-0.0343007
0.478342
-0.0249058
0.455963
-0.0182955
0.435068
-0.0139754
0.415573
-0.0113166
-0.00976337
0.397158
0.441106
0.369196
0.308458
0.261927
0.227626
0.20272
0.184425
0.170449
0.159133
0.14937
-0.000512944
0.000512831
-0.00237051
0.0018573
-0.00502633
0.00265555
-0.00795812
0.00293153
-0.0108976
0.00293923
-0.0137303
0.00283246
-0.0164093
0.0026787
-0.0189105
0.00250085
-0.0212141
0.00230329
-0.0232989
0.00208449
-0.0251419
0.00184258
-0.0267189
0.00157668
-0.0280063
0.00128703
-0.0289817
0.000975102
-0.0296255
0.000643473
-0.0299216
0.00029587
-0.0298588
-6.30587e-05
-0.0294309
-0.000427899
-0.0286386
-0.000792314
-0.0274887
-0.00114985
-0.0259945
-0.00149408
-0.0241756
-0.00181861
-0.0220577
-0.00211753
-0.0196717
-0.00238554
-0.0170529
-0.00261832
-0.0142397
-0.00281253
-0.011273
-0.00296594
-0.00819479
-0.00307733
-0.0050468
-0.00314707
-0.00186946
-0.00317634
0.00129835
-0.00316678
0.004421
-0.00312158
0.0074666
-0.00304451
0.0104073
-0.00293962
0.0132198
-0.00281134
0.0158851
-0.00266417
0.0183888
-0.00250262
0.0207208
-0.002331
0.0228752
-0.00215334
0.0248496
-0.00197334
0.0266447
-0.00179422
0.0282644
-0.00161878
0.0297145
-0.00144933
0.031003
-0.00128772
0.0321391
-0.00113535
0.033133
-0.00099323
0.0339955
-0.000861965
0.0347379
-0.00074188
0.0353714
-0.000632994
0.035907
-0.000535131
0.0363553
-0.000447908
0.0367265
-0.00037083
0.0370301
-0.000303282
0.037275
-0.000244599
0.0374694
-0.00019406
0.0376206
-0.000150946
0.0377354
-0.000114522
0.0378198
-8.40877e-05
0.037879
-5.89544e-05
0.0379178
-3.84817e-05
0.0379401
-2.20604e-05
0.0379495
-9.13363e-06
0.037949
8.17097e-07
0.037941
8.25458e-06
0.0379277
1.36004e-05
0.0379107
1.72265e-05
0.0378915
1.94686e-05
0.0378711
2.062e-05
0.0378504
2.09433e-05
0.03783
2.06625e-05
0.0378103
1.99752e-05
0.0377914
1.90444e-05
0.0377736
1.80123e-05
0.0377568
1.69916e-05
0.0377408
1.60795e-05
0.0377256
1.53486e-05
0.0377108
1.4862e-05
0.0376962
1.46631e-05
0.0376814
1.47916e-05
0.0376662
1.52724e-05
0.03765
1.61332e-05
0.0376326
1.73966e-05
0.0376134
1.91073e-05
0.037592
2.13348e-05
0.0375678
2.42419e-05
0.0375395
2.82508e-05
0.0375054
3.40481e-05
0.0374623
4.30093e-05
0.0374028
5.93635e-05
9.96307e-05
-0.00219682
0.0027094
-0.00717654
0.00683624
-0.0135793
0.00905757
-0.0204227
0.00977431
-0.0271508
0.0096666
-0.0334904
0.00917143
-0.0393137
0.0085013
-0.0445548
0.00774115
-0.0491701
0.00691778
-0.0531232
0.00603677
-0.0563802
0.0050987
-0.0589091
0.00410474
-0.0606815
0.00305857
-0.0616739
0.0019668
-0.0618702
0.000839129
-0.0612628
-0.000312003
-0.0598545
-0.00147163
-0.0576597
-0.00262278
-0.0547038
-0.00374813
-0.051023
-0.00483038
-0.046664
-0.00585257
-0.0416832
-0.00679873
-0.0361451
-0.00765457
-0.0301214
-0.00840809
-0.0236885
-0.00904974
-0.0169263
-0.00957305
-0.00991567
-0.00997461
-0.00273765
-0.0102532
0.00452745
-0.0104099
0.011803
-0.0104495
0.0190189
-0.0103802
0.0261108
-0.0102109
0.0330206
-0.00995167
0.0396972
-0.00961365
0.0460974
-0.00920889
0.0521855
-0.00874965
0.0579335
-0.00824814
0.0633212
-0.0077162
0.0683352
-0.00716498
0.0729689
-0.00660475
0.0772216
-0.00604478
0.081098
-0.00549314
0.0846073
-0.00495675
0.0877626
-0.00444129
0.0905801
-0.00395129
0.0930785
-0.00349013
0.0952781
-0.00306021
0.0972004
-0.00266297
0.0988675
-0.00229903
0.100302
-0.00196836
0.101525
-0.0016703
0.102559
-0.00140377
0.103424
-0.00116729
0.104139
-0.000959133
0.104723
-0.000777371
0.105193
-0.000619973
0.105564
-0.00048485
0.10585
-0.000369912
0.106065
-0.000273103
0.106219
-0.000192439
0.106324
-0.000126025
0.106387
-7.20781e-05
0.106418
-2.89334e-05
0.106422
4.94308e-06
0.106405
3.09537e-05
0.106373
5.0362e-05
0.106328
6.43144e-05
0.106276
7.38377e-05
0.106217
7.98488e-05
0.106155
8.31531e-05
0.106092
8.44558e-05
0.106027
8.43644e-05
0.105962
8.33998e-05
0.105897
8.20013e-05
0.105833
8.05365e-05
0.105769
7.93079e-05
0.105706
7.85616e-05
0.105642
7.84948e-05
0.105578
7.92642e-05
0.105512
8.09945e-05
0.105445
8.37887e-05
0.105374
8.77442e-05
0.1053
9.2977e-05
0.105222
9.96678e-05
0.105138
0.000108122
0.105047
0.000118949
0.104948
0.000133016
0.104839
0.000152401
0.10472
0.000177805
0.000231628
-0.00366084
0.00636989
-0.0110262
0.0142009
-0.0198589
0.0178896
-0.0288869
0.0188017
-0.0374419
0.0182209
-0.0451996
0.0169286
-0.0520128
0.0153138
-0.0578159
0.0135436
-0.062579
0.0116801
-0.0662862
0.00974333
-0.0689286
0.00774036
-0.0705014
0.00567692
-0.0710051
0.00356159
-0.0704465
0.00140756
-0.0688406
-0.000767247
-0.0662132
-0.0029398
-0.0626012
-0.00508389
-0.0580515
-0.00717253
-0.0526211
-0.00917861
-0.0463759
-0.0110754
-0.0393907
-0.0128374
-0.0317474
-0.0144415
-0.0235335
-0.0158677
-0.0148407
-0.0170999
-0.00576321
-0.0181262
0.00360413
-0.0189391
0.0131661
-0.0195351
0.0228315
-0.0199171
0.032515
-0.0200917
0.0421357
-0.0200683
0.0516177
-0.0198602
0.0608921
-0.0194833
0.0698978
-0.0189553
0.0785818
-0.0182955
0.086899
-0.017524
0.0948127
-0.0166612
0.102294
-0.0157276
0.109323
-0.0147426
0.115885
-0.0137249
0.121973
-0.0126916
0.127589
-0.0116581
0.132735
-0.0106383
0.137424
-0.00964395
0.141669
-0.00868494
0.145489
-0.00776932
0.148903
-0.00690332
0.151935
-0.00609147
0.15461
-0.00533677
0.156953
-0.00464085
0.158989
-0.00400411
0.160746
-0.00342594
0.162248
-0.00290488
0.16352
-0.00243876
0.164586
-0.00202489
0.165469
-0.00166018
0.166191
-0.00134126
0.166771
-0.0010646
0.167228
-0.000826588
0.167579
-0.000623629
0.16784
-0.000452186
0.168023
-0.000308841
0.168142
-0.00019033
0.168207
-9.35731e-05
0.168228
-1.56922e-05
0.168214
4.59681e-05
0.168171
9.38395e-05
0.168106
0.000130143
0.168023
0.000156894
0.167928
0.000175901
0.167823
0.000188772
0.167711
0.000196924
0.167594
0.000201592
0.167474
0.000203847
0.167352
0.000204602
0.167228
0.000204631
0.167103
0.000204577
0.166977
0.000204975
0.16685
0.000206257
0.166721
0.000208772
0.166589
0.000212799
0.166455
0.000218568
0.166316
0.000226275
0.166173
0.000236121
0.166025
0.000248353
0.16587
0.000263328
0.165707
0.000281641
0.165536
0.000304033
0.165356
0.000332474
0.165168
0.000365601
0.000428133
-0.0046687
0.0110384
-0.0134017
0.0229332
-0.0232037
0.0276909
-0.0326238
0.0282211
-0.0410139
0.0266104
-0.0481097
0.0240238
-0.0538252
0.0210286
-0.0581534
0.0178713
-0.0611201
0.0146462
-0.0627624
0.0113851
-0.0631215
0.00809887
-0.0622401
0.00479493
-0.0601636
0.00148454
-0.0569414
-0.00181509
-0.0526307
-0.00507842
-0.0472952
-0.00827569
-0.0410051
-0.0113744
-0.0338369
-0.0143409
-0.0258734
-0.0171423
-0.017202
-0.0197468
-0.00791468
-0.0221246
0.00189327
-0.0242492
0.0121245
-0.0260986
0.0226819
-0.0276567
0.0334703
-0.028914
0.0443974
-0.0298654
0.0553748
-0.0305116
0.0663185
-0.0308597
0.0771494
-0.0309214
0.0877955
-0.0307131
0.0981914
-0.0302547
0.108279
-0.0295696
0.118009
-0.0286833
0.127338
-0.0276227
0.136231
-0.0264159
0.144663
-0.0250908
0.152612
-0.0236749
0.160065
-0.0221948
0.167017
-0.0206752
0.173466
-0.0191391
0.179417
-0.0176073
0.184878
-0.016098
0.189862
-0.0146271
0.194386
-0.0132079
0.198469
-0.0118512
0.202132
-0.0105655
0.205399
-0.00935705
0.208293
-0.00823012
0.21084
-0.00718708
0.213065
-0.00622873
0.214994
-0.00535446
0.216652
-0.00456251
0.218064
-0.00385014
0.219253
-0.00321384
0.220243
-0.00264951
0.221055
-0.00215263
0.221709
-0.00171838
0.222224
-0.00134181
0.222619
-0.00101791
0.222909
-0.000741705
0.223109
-0.000508337
0.223232
-0.00031313
0.223291
-0.000151627
0.223295
-1.96342e-05
0.223255
8.67645e-05
0.223178
0.000171199
0.223071
0.000237015
0.222942
0.000287265
0.222793
0.000324704
0.222631
0.000351805
0.222458
0.00037076
0.222276
0.000383503
0.222089
0.000391716
0.221897
0.000396854
0.221702
0.000400159
0.221505
0.000402679
0.221305
0.000405289
0.221103
0.000408709
0.220898
0.000413523
0.220691
0.000420205
0.220481
0.000429132
0.220267
0.000440624
0.220049
0.000454957
0.219825
0.000472422
0.219595
0.000493345
0.219359
0.0005182
0.219116
0.000547402
0.218866
0.000582516
0.21861
0.000620927
0.000687672
-0.0052546
0.0162926
-0.0141786
0.0318566
-0.0232441
0.0367559
-0.0310679
0.0360444
-0.0372094
0.0327514
-0.0415861
0.0283999
-0.0442499
0.0236919
-0.0452995
0.0189204
-0.0448434
0.0141896
-0.042986
0.00952708
-0.0398247
0.00493712
-0.0354516
0.00042123
-0.029955
-0.00401258
-0.0234247
-0.00834588
-0.0159511
-0.0125525
-0.00762598
-0.0166014
0.00145745
-0.0204583
0.0112041
-0.024088
0.0215168
-0.0274554
0.0322977
-0.0305281
0.0434499
-0.033277
0.0548782
-0.0356776
0.06649
-0.0377105
0.0781961
-0.0393627
0.0899106
-0.0406283
0.101553
-0.0415076
0.113049
-0.0420071
0.12433
-0.0421398
0.135333
-0.0419243
0.146005
-0.0413841
0.156298
-0.0405466
0.166172
-0.0394424
0.175594
-0.0381046
0.18454
-0.0365675
0.192991
-0.0348658
0.200936
-0.0330342
0.208369
-0.0311061
0.215289
-0.0291136
0.221701
-0.0270863
0.227614
-0.0250515
0.233042
-0.0230335
0.237999
-0.0210538
0.242503
-0.0191307
0.246575
-0.0172794
0.250237
-0.0155123
0.253512
-0.0138391
0.256422
-0.0122666
0.258992
-0.0107995
0.261245
-0.00944024
0.263206
-0.00818946
0.264898
-0.00704617
0.266344
-0.00600802
0.267566
-0.00507153
0.268585
-0.00423234
0.269421
-0.00348536
0.270093
-0.00282503
0.270621
-0.0022454
0.27102
-0.00174036
0.271306
-0.00130368
0.271493
-0.000929193
0.271596
-0.000610835
0.271626
-0.000342735
0.271594
-0.000119286
0.27151
6.48286e-05
0.271383
0.000214624
0.27122
0.000334795
0.271027
0.00042967
0.270812
0.000503218
0.270578
0.00055904
0.27033
0.000600388
0.270071
0.000630166
0.269804
0.000650948
0.269532
0.000664995
0.269255
0.000674275
0.268975
0.000680479
0.268693
0.000685049
0.26841
0.000689197
0.268125
0.000693929
0.267839
0.00070007
0.267551
0.000708287
0.267262
0.000719114
0.26697
0.000732982
0.266675
0.00075024
0.266376
0.000771192
0.266074
0.000796115
0.265767
0.000825323
0.265456
0.000858952
0.26514
0.000897994
0.264821
0.000939557
0.00100547
-0.00549073
0.0217832
-0.0132442
0.0396095
-0.0195032
0.0430143
-0.0234377
0.0399783
-0.0251095
0.0344227
-0.0247471
0.0280371
-0.0225889
0.0215331
-0.0188523
0.0151833
-0.0137252
0.00906193
-0.00736561
0.00316703
8.9642e-05
-0.00251864
0.00851843
-0.00800807
0.0178045
-0.0132991
0.0278354
-0.0183773
0.0385029
-0.0232206
0.0497026
-0.0278016
0.0613328
-0.0320891
0.0732948
-0.0360506
0.0854935
-0.0396546
0.0978372
-0.0428722
0.110238
-0.0456784
0.122613
-0.048053
0.134884
-0.0499819
0.146979
-0.0514578
0.158831
-0.0524803
0.170379
-0.0530561
0.181571
-0.0531985
0.192359
-0.0529274
0.202704
-0.0522686
0.212572
-0.0512524
0.22194
-0.0499135
0.230788
-0.0482895
0.239104
-0.04642
0.246883
-0.0443456
0.254124
-0.0421069
0.260835
-0.0397436
0.267023
-0.0372938
0.272704
-0.0347935
0.277894
-0.0322756
0.282613
-0.0297699
0.286883
-0.0273029
0.290727
-0.0248974
0.29417
-0.0225727
0.297236
-0.0203446
0.299949
-0.0182256
0.302336
-0.0162251
0.304419
-0.0143496
0.306223
-0.0126031
0.30777
-0.0109873
0.309083
-0.00950183
0.310182
-0.00814479
0.311087
-0.00691276
0.311816
-0.00580121
0.312389
-0.00480467
0.312821
-0.00391697
0.313127
-0.00313146
0.313323
-0.00244111
0.313422
-0.00183875
0.313435
-0.00131713
0.313375
-0.00086907
0.313252
-0.000487528
0.313076
-0.000165711
0.312854
0.000102893
0.312594
0.000324526
0.312304
0.000505082
0.311989
0.000650046
0.311655
0.0007645
0.311305
0.00085311
0.310945
0.000920136
0.310576
0.000969433
0.310202
0.00100446
0.309826
0.00102831
0.309447
0.00104369
0.309069
0.00105299
0.308692
0.00105827
0.308316
0.00106127
0.307942
0.00106351
0.30757
0.00106621
0.3072
0.00107042
0.306832
0.00107695
0.306465
0.00108646
0.306099
0.00109948
0.305733
0.00111642
0.305367
0.00113756
0.305
0.00116314
0.304633
0.00119333
0.304264
0.00122804
0.303894
0.0012677
0.303523
0.00131013
0.00137004
-0.00526184
0.0270448
-0.0098731
0.0442202
-0.010486
0.0436267
-0.00772605
0.0372179
-0.00252835
0.0292244
0.00450414
0.021004
0.0129787
0.0130581
0.0226087
0.00555279
0.033179
-0.00150887
0.0445285
-0.00818285
0.0565222
-0.0145128
0.0690323
-0.0205186
0.0819399
-0.0262072
0.0951365
-0.0315743
0.108522
-0.0366062
0.122002
-0.0412821
0.135489
-0.0455769
0.148902
-0.0494641
0.162164
-0.0529177
0.175206
-0.0559147
0.187963
-0.0584355
0.200376
-0.0604663
0.212392
-0.0619988
0.223966
-0.063032
0.235057
-0.0635716
0.245632
-0.0636308
0.255662
-0.0632293
0.265129
-0.0623937
0.274016
-0.0611558
0.282316
-0.0595527
0.290028
-0.0576248
0.297154
-0.0554156
0.303705
-0.0529699
0.309692
-0.0503331
0.315136
-0.04755
0.320056
-0.0446637
0.324478
-0.0417153
0.328428
-0.0387427
0.331933
-0.0357805
0.335023
-0.0328594
0.337727
-0.0300062
0.340073
-0.0272437
0.342091
-0.0245907
0.343809
-0.0220621
0.345253
-0.0196692
0.346448
-0.0174203
0.347419
-0.0153204
0.348188
-0.013372
0.348776
-0.0115752
0.349202
-0.00992826
0.349485
-0.00842773
0.349641
-0.00706875
0.349686
-0.00584541
0.349632
-0.00475095
0.349493
-0.00377799
0.34928
-0.00291873
0.349004
-0.0021651
0.348674
-0.00150892
0.348299
-0.000942059
0.347887
-0.000456484
0.347444
-4.44267e-05
0.346977
0.000301686
0.346491
0.000589152
0.345991
0.000824854
0.345481
0.00101525
0.344965
0.00116636
0.344446
0.00128379
0.343926
0.00137267
0.343409
0.00143772
0.342896
0.00148318
0.342388
0.00151291
0.341886
0.00153031
0.341392
0.00153842
0.340905
0.00153989
0.340427
0.00153703
0.339957
0.00153181
0.339495
0.00152591
0.33904
0.00152074
0.338594
0.00151745
0.338154
0.00151699
0.337721
0.00152009
0.337293
0.00152732
0.336871
0.00153912
0.336453
0.00155576
0.336039
0.00157742
0.335628
0.00160414
0.33522
0.00163579
0.334816
0.00167211
0.334413
0.00171258
0.00176123
-0.00378351
0.0308281
-0.00097501
0.0414112
0.00854348
0.0341077
0.0214016
0.0243592
0.0357778
0.0148477
0.05095
0.00583134
0.0665783
-0.00257067
0.0824604
-0.0103298
0.098467
-0.0175159
0.114492
-0.0242084
0.130444
-0.0304648
0.146242
-0.0363175
0.161817
-0.0417823
0.177104
-0.0468616
0.192044
-0.0515473
0.206585
-0.0558236
0.220678
-0.05967
0.234278
-0.0630647
0.247346
-0.0659863
0.259847
-0.0684164
0.271751
-0.0703403
0.283033
-0.0717488
0.293673
-0.072639
0.303655
-0.0730145
0.31297
-0.0728866
0.321612
-0.0722736
0.329583
-0.0712005
0.336889
-0.0696992
0.343539
-0.0678067
0.349552
-0.0655649
0.354946
-0.063019
0.359746
-0.0602163
0.363982
-0.0572053
0.367683
-0.0540341
0.370882
-0.0507497
0.373616
-0.0473969
0.375918
-0.0440174
0.377824
-0.0406494
0.379371
-0.0373271
0.380592
-0.0340803
0.38152
-0.0309346
0.382188
-0.0279111
0.382624
-0.0250268
0.382856
-0.0222945
0.38291
-0.0197237
0.38281
-0.0173203
0.382577
-0.0150873
0.38223
-0.0130252
0.381787
-0.0111321
0.381263
-0.0094044
0.380672
-0.00783697
0.380027
-0.00642337
0.379337
-0.00515622
0.378614
-0.00402746
0.377864
-0.00302851
0.377096
-0.00215049
0.376315
-0.00138441
0.375527
-0.000721248
0.374737
-0.000152176
0.373949
0.000331511
0.373167
0.000738318
0.372392
0.00107637
0.371628
0.00135334
0.370876
0.00157651
0.370139
0.00175271
0.369417
0.00188829
0.368712
0.00198915
0.368024
0.0020607
0.367354
0.00210789
0.366702
0.00213519
0.366069
0.00214664
0.365454
0.00214584
0.364856
0.00213597
0.364277
0.00211982
0.363714
0.00209982
0.363168
0.00207806
0.362638
0.00205629
0.362123
0.002036
0.361622
0.00201841
0.361135
0.0020045
0.36066
0.00199504
0.360197
0.00199062
0.359744
0.00199165
0.359302
0.00199839
0.358869
0.00201097
0.358444
0.00202931
0.358026
0.00205331
0.357616
0.00208208
0.357211
0.00211734
0.00214973
0.00397321
0.0268546
0.0247765
0.0206071
0.0503582
0.00852533
0.0758426
-0.00112585
0.100165
-0.00947492
0.12324
-0.0172448
0.145139
-0.0244696
0.165938
-0.0311295
0.185714
-0.037292
0.204533
-0.0430287
0.222448
-0.0483802
0.239493
-0.0533628
0.255691
-0.0579802
0.271055
-0.0622262
0.285594
-0.0660869
0.299313
-0.0695427
0.312214
-0.0725713
0.324298
-0.0751497
0.335568
-0.0772568
0.346026
-0.078875
0.355677
-0.0799916
0.364527
-0.0805995
0.372587
-0.0806989
0.379869
-0.0802968
0.38639
-0.0794082
0.392172
-0.0780555
0.397239
-0.0762681
0.401621
-0.0740818
0.405352
-0.0715377
0.408468
-0.0686812
0.411009
-0.0655602
0.413017
-0.0622246
0.414536
-0.0587243
0.41561
-0.0551083
0.416283
-0.0514236
0.4166
-0.0477141
0.416603
-0.0440204
0.416332
-0.0403787
0.415825
-0.0368208
0.415119
-0.0333739
0.414245
-0.0300607
0.413232
-0.0268994
0.412109
-0.0239039
0.410899
-0.0210843
0.409622
-0.018447
0.408297
-0.0159954
0.406939
-0.0137301
0.405563
-0.0116493
0.40418
-0.00974904
0.402799
-0.00802395
0.401429
-0.0064672
0.400076
-0.00507093
0.398746
-0.00382654
0.397444
-0.00272485
0.396171
-0.00175635
0.394932
-0.00091139
0.393728
-0.000180324
0.39256
0.000446422
0.391429
0.000978301
0.390336
0.00142444
0.389281
0.00179357
0.388263
0.00209404
0.387283
0.00233376
0.386339
0.0025202
0.385432
0.00266033
0.384559
0.00276063
0.383721
0.0028271
0.382917
0.00286523
0.382145
0.00288003
0.381404
0.00287603
0.380693
0.00285729
0.380012
0.00282746
0.379358
0.00278972
0.378731
0.00274691
0.378129
0.00270145
0.377552
0.00265544
0.376998
0.00261064
0.376465
0.00256854
0.375953
0.00253034
0.375461
0.00249703
0.374987
0.00246935
0.374529
0.00244788
0.374088
0.00243299
0.373662
0.00242491
0.373249
0.00242371
0.372849
0.00242926
0.372461
0.00244151
0.372084
0.00245901
0.371715
0.00248582
0.00249825
0.0556067
-0.0287528
0.103139
-0.0269263
0.142039
-0.0303752
0.175526
-0.0346128
0.204846
-0.0387954
0.23082
-0.0432194
0.254127
-0.0477771
0.275273
-0.0522762
0.294605
-0.0566242
0.312362
-0.0607864
0.328718
-0.0647363
0.3438
-0.0684451
0.357702
-0.0718832
0.370497
-0.0750209
0.382237
-0.0778273
0.392965
-0.0802714
0.402716
-0.0823224
0.411518
-0.0839523
0.419398
-0.0851367
0.426379
-0.0858566
0.432486
-0.0860995
0.437747
-0.08586
0.442188
-0.0851406
0.445843
-0.083952
0.448747
-0.0823129
0.450941
-0.0802499
0.452469
-0.0777964
0.453379
-0.0749919
0.453721
-0.0718807
0.45355
-0.0685103
0.45292
-0.0649304
0.451886
-0.0611911
0.450503
-0.0573417
0.448824
-0.0534298
0.4469
-0.0495
0.444778
-0.0455933
0.442504
-0.0417465
0.440117
-0.0379919
0.437652
-0.0343572
0.435143
-0.0308652
0.432616
-0.0275344
0.430095
-0.0243789
0.4276
-0.0214088
0.425146
-0.0186307
0.422746
-0.0160479
0.420412
-0.0136609
0.418149
-0.0114677
0.415964
-0.00946447
0.41386
-0.00764553
0.411839
-0.0060039
0.409903
-0.00453149
0.408052
-0.00321946
0.406283
-0.00205834
0.404596
-0.00103834
0.402989
-0.000149462
0.401459
0.000618281
0.400004
0.00127484
0.39862
0.00182995
0.397305
0.00229305
0.396056
0.0026733
0.39487
0.00297945
0.393744
0.00321982
0.392676
0.00340227
0.391661
0.0035342
0.390699
0.00362249
0.389786
0.00367352
0.38892
0.00369319
0.388098
0.00368688
0.387318
0.00365949
0.386579
0.00361546
0.385877
0.00355875
0.385212
0.0034929
0.38458
0.00342102
0.383981
0.00334585
0.383413
0.00326974
0.382873
0.00319472
0.382362
0.00312248
0.381876
0.00305444
0.381414
0.00299177
0.380976
0.00293538
0.380559
0.00288597
0.380163
0.00284408
0.379786
0.00281003
0.379426
0.00278403
0.379084
0.0027661
0.378757
0.00275607
0.378445
0.00275393
0.378146
0.00275784
0.377858
0.00277381
0.00276517
0.259576
-0.0437764
0.283944
-0.0512953
0.307536
-0.053967
0.329463
-0.0565407
0.349763
-0.0590952
0.368244
-0.0617011
0.38494
-0.0644733
0.400028
-0.0673644
0.41368
-0.0702769
0.426031
-0.0731368
0.437182
-0.0758886
0.447219
-0.0784815
0.456202
-0.0808671
0.464181
-0.0829999
0.471191
-0.0848376
0.477261
-0.0863413
0.482414
-0.087476
0.486673
-0.0882117
0.490061
-0.0885243
0.492601
-0.0883968
0.494321
-0.0878204
0.495255
-0.0867943
0.495441
-0.0853266
0.494923
-0.0834338
0.49375
-0.0811404
0.491978
-0.0784783
0.489667
-0.0754854
0.486879
-0.0722047
0.483681
-0.0686826
0.480138
-0.0649674
0.476315
-0.0611082
0.472277
-0.0571532
0.468083
-0.0531486
0.46379
-0.0491378
0.45945
-0.0451606
0.455109
-0.0412526
0.450807
-0.0374448
0.446578
-0.0337637
0.442451
-0.0302311
0.43845
-0.0268645
0.434592
-0.0236771
0.430891
-0.0206784
0.427356
-0.0178742
0.423993
-0.0152675
0.420803
-0.0128584
0.417786
-0.0106449
0.414941
-0.00862284
0.412263
-0.00678668
0.409747
-0.00512944
0.407386
-0.00364318
0.405173
-0.00231913
0.403101
-0.00114798
0.401163
-0.00011999
0.399349
0.000774604
0.397654
0.00154559
0.396069
0.00220274
0.394588
0.00275573
0.393204
0.00321399
0.39191
0.00358668
0.390701
0.00388259
0.38957
0.00411011
0.388512
0.0042772
0.387523
0.00439137
0.386597
0.00445964
0.38573
0.00448857
0.384919
0.00448422
0.38416
0.00445218
0.383449
0.00439754
0.382783
0.00432495
0.38216
0.00423858
0.381576
0.00414218
0.38103
0.00403907
0.380518
0.0039322
0.38004
0.00382411
0.379592
0.00371701
0.379174
0.00361279
0.378783
0.00351302
0.378418
0.00341901
0.378078
0.00333183
0.377761
0.00325232
0.377466
0.00318111
0.377191
0.00311866
0.376935
0.00306529
0.376698
0.00302113
0.376478
0.0029862
0.376274
0.00296031
0.376084
0.00294349
0.375908
0.00293377
0.375744
0.00293794
0.00291087
0.484765
-0.0379616
0.483226
-0.049756
0.485614
-0.0563559
0.490094
-0.0610205
0.495817
-0.0648181
0.502107
-0.0679921
0.50844
-0.070806
0.514508
-0.0734321
0.520142
-0.0759113
0.525236
-0.0782312
0.529716
-0.0803687
0.533529
-0.0822949
0.536637
-0.0839755
0.539011
-0.0853738
0.540628
-0.0864549
0.541474
-0.0871873
0.541542
-0.0875437
0.540833
-0.0875029
0.539359
-0.0870502
0.537141
-0.0861786
0.53421
-0.0848892
0.530607
-0.0831914
0.526382
-0.0811024
0.521596
-0.0786473
0.516313
-0.0758578
0.510606
-0.072771
0.504549
-0.0694287
0.498219
-0.0658754
0.491693
-0.0621573
0.485046
-0.0583208
0.478349
-0.0544111
0.471667
-0.0504713
0.465059
-0.0465417
0.45858
-0.0426587
0.452273
-0.0388546
0.446177
-0.0351576
0.440323
-0.0315911
0.434733
-0.0281746
0.429425
-0.0249232
0.424408
-0.0218483
0.419688
-0.0189578
0.415266
-0.0162564
0.411137
-0.0137461
0.407296
-0.0114265
0.403732
-0.00929529
0.400435
-0.00734829
0.397392
-0.00558003
0.394589
-0.00398389
0.392012
-0.00255233
0.389646
-0.0012771
0.387475
-0.000149308
0.385487
0.000839948
0.383668
0.00169959
0.382003
0.00243878
0.380482
0.00306675
0.379092
0.00359265
0.377822
0.0040254
0.376662
0.00437371
0.375602
0.00464596
0.374634
0.00485019
0.37375
0.00499407
0.372942
0.00508488
0.372203
0.00512947
0.371528
0.00513424
0.370911
0.00510519
0.370347
0.00504782
0.369832
0.00496725
0.369361
0.00486811
0.368931
0.00475463
0.368538
0.00463062
0.36818
0.00449949
0.367855
0.00436425
0.367559
0.00422756
0.367291
0.00409174
0.367049
0.00395877
0.366831
0.00383034
0.366635
0.00370786
0.366462
0.00359251
0.366308
0.00348522
0.366173
0.00338671
0.366057
0.00329756
0.365957
0.00321816
0.365873
0.00314877
0.365804
0.00308951
0.36575
0.00304041
0.365709
0.00300129
0.36568
0.00297219
0.365663
0.00295128
0.365656
0.00294477
0.00290598
0.60797
-0.0336357
0.603007
-0.0447928
0.599275
-0.0526235
0.596699
-0.0584451
0.595059
-0.0631781
0.594149
-0.0670824
0.593683
-0.07034
0.593381
-0.0731297
0.59302
-0.0755507
0.592427
-0.0776381
0.59146
-0.0794019
0.590007
-0.0808418
0.58798
-0.0819487
0.585316
-0.0827089
0.581968
-0.0831075
0.577913
-0.0831316
0.573141
-0.082772
0.567663
-0.0820243
0.561503
-0.08089
0.554701
-0.0793769
0.547312
-0.0774995
0.539399
-0.0752786
0.531038
-0.0727411
0.52231
-0.0699191
0.513301
-0.0668489
0.5041
-0.0635702
0.494796
-0.0601244
0.485474
-0.0565535
0.476216
-0.0528993
0.467097
-0.0492019
0.458184
-0.045499
0.449538
-0.0418254
0.441208
-0.038212
0.433235
-0.0346863
0.425651
-0.0312714
0.41848
-0.0279866
0.411736
-0.0248475
0.405427
-0.021866
0.399554
-0.0190507
0.394112
-0.0164073
0.389093
-0.0139389
0.384482
-0.0116463
0.380264
-0.00952855
0.37642
-0.00758281
0.37293
-0.00580507
0.369771
-0.00419015
0.366923
-0.00273199
0.364363
-0.00142376
0.362068
-0.000257934
0.360018
0.000773096
0.358191
0.00167684
0.35657
0.00246126
0.355135
0.00313454
0.353869
0.00370488
0.352755
0.00418036
0.351778
0.00456896
0.350925
0.00487843
0.350182
0.00511634
0.349538
0.00528995
0.348981
0.00540625
0.348503
0.00547189
0.348094
0.0054932
0.347747
0.00547613
0.347455
0.00542627
0.347211
0.00534882
0.347009
0.00524862
0.346846
0.0051301
0.346716
0.00499733
0.346616
0.00485399
0.346543
0.0047034
0.346493
0.00454854
0.346465
0.00439204
0.346456
0.00423621
0.346464
0.00408304
0.346488
0.00393426
0.346526
0.00379132
0.346578
0.00365542
0.346643
0.00352757
0.346719
0.00340854
0.346806
0.00329895
0.346904
0.00319928
0.347012
0.00310985
0.34713
0.00303088
0.347257
0.00296252
0.347392
0.0029048
0.347535
0.00285765
0.347686
0.00282105
0.347844
0.00279373
0.348009
0.00277975
0.00273937
0.646233
-0.0350106
0.645276
-0.0438358
0.643497
-0.0508436
0.641399
-0.0563479
0.639072
-0.0608501
0.636543
-0.064554
0.633768
-0.0675644
0.630638
-0.0699993
0.627039
-0.0719518
0.622875
-0.0734737
0.618066
-0.074593
0.612552
-0.075328
0.606295
-0.075691
0.599276
-0.0756894
0.591498
-0.075329
0.582983
-0.0746161
0.57377
-0.0735592
0.563916
-0.0721698
0.55349
-0.0704635
0.542573
-0.0684596
0.531256
-0.0661819
0.519635
-0.0636576
0.507812
-0.0609175
0.495888
-0.0579947
0.483963
-0.0549241
0.472135
-0.0517413
0.460492
-0.0484819
0.449119
-0.04518
0.438088
-0.0418684
0.427463
-0.038577
0.417296
-0.035333
0.407631
-0.0321604
0.398499
-0.0290799
0.389921
-0.0261088
0.38191
-0.0232609
0.374471
-0.0205474
0.367599
-0.0179762
0.361286
-0.0155529
0.355515
-0.0132808
0.350269
-0.0111613
0.345524
-0.00919396
0.341254
-0.0073771
0.337433
-0.00570784
0.334033
-0.00418233
0.331023
-0.00279597
0.328376
-0.00154348
0.326063
-0.000418938
0.324056
0.000583728
0.322327
0.00147039
0.320853
0.00224738
0.319608
0.00292138
0.31857
0.00349914
0.317717
0.00398738
0.317029
0.00439279
0.316487
0.00472198
0.316075
0.00498143
0.315775
0.00517748
0.315575
0.00531628
0.315461
0.00540377
0.315421
0.00544568
0.315445
0.00544746
0.315524
0.00541431
0.315648
0.00535114
0.315811
0.00526258
0.316007
0.00515291
0.316228
0.00502616
0.316472
0.00488599
0.316733
0.00473579
0.317008
0.00457861
0.317293
0.00441722
0.317587
0.00425406
0.317887
0.00409132
0.318192
0.00393091
0.318499
0.00377447
0.31881
0.00362339
0.319122
0.00347889
0.319435
0.0033419
0.319748
0.00321325
0.320063
0.00309355
0.320378
0.00298329
0.320694
0.00288283
0.321011
0.00279246
0.321329
0.00271237
0.321649
0.00264273
0.321969
0.00258362
0.322292
0.00253514
0.322615
0.00249735
0.322939
0.00246968
0.323265
0.00245335
0.00242313
0.649334
-0.0398336
0.651434
-0.0459351
0.651651
-0.0510604
0.650461
-0.055158
0.648039
-0.0584281
0.644489
-0.0610036
0.63988
-0.0629543
0.634238
-0.064357
0.627575
-0.0652887
0.619908
-0.0658066
0.611266
-0.0659504
0.601689
-0.0657506
0.59123
-0.0652322
0.579958
-0.0644165
0.567951
-0.0633218
0.555301
-0.0619653
0.542107
-0.0603647
0.528476
-0.0585387
0.514521
-0.0565075
0.500355
-0.0542933
0.486094
-0.0519198
0.471849
-0.0494122
0.457729
-0.0467968
0.443835
-0.0441004
0.430261
-0.0413499
0.417091
-0.0385713
0.404399
-0.0357894
0.392247
-0.0330274
0.380685
-0.0303062
0.369752
-0.0276443
0.359477
-0.025058
0.349877
-0.0225606
0.34096
-0.0201632
0.332726
-0.0178744
0.325165
-0.0157006
0.318264
-0.0136462
0.312001
-0.0117138
0.306353
-0.00990478
0.301291
-0.00821884
0.296784
-0.00665486
0.2928
-0.00521073
0.289307
-0.0038837
0.286269
-0.0026704
0.283654
-0.00156701
0.281427
-0.000569226
0.279556
0.000327459
0.27801
0.00112734
0.276758
0.00183493
0.275773
0.00245522
0.275027
0.00299322
0.274495
0.00345404
0.274151
0.00384271
0.273974
0.00416434
0.273943
0.00442392
0.274038
0.00462645
0.274243
0.00477679
0.27454
0.00487978
0.274916
0.00494005
0.275357
0.00496216
0.275852
0.00495048
0.27639
0.00490921
0.276961
0.00484234
0.277558
0.0047537
0.278174
0.00464682
0.278801
0.0045251
0.279435
0.0043916
0.280071
0.00424924
0.280705
0.00410059
0.281335
0.00394808
0.281958
0.00379382
0.282572
0.00363976
0.283175
0.00348753
0.283766
0.00333866
0.284346
0.00319434
0.284913
0.00305571
0.285467
0.0029236
0.28601