/*--------------------------------*- C++ -*----------------------------------*\
| =========                 |                                                 |
| \\      /  F ield         | OpenFOAM: The Open Source CFD Toolbox           |
|  \\    /   O peration     | Version:  2406                                  |
|   \\  /    A nd           | Website:  www.openfoam.com                      |
|    \\/     M anipulation  |                                                 |
\*---------------------------------------------------------------------------*/
FoamFile
{
    version     2.0;
    format      ascii;
    arch        "LSB;label=32;scalar=64";
    class       volScalarField;
    location    "2000";
    object      k;
}
// * * * * * * * * * * * * * * * * * * * * * * * * * * * * * * * * * * * * * //

dimensions      [0 2 -2 0 0 0 0];

internalField   nonuniform List<scalar> 
190000
(
0.522724
0.865858
1.20622
1.50444
1.73536
1.89915
1.9964
2.04984
2.05106
2.0392
2.01005
1.96721
1.92049
1.87328
1.82766
1.78488
1.74553
1.70981
1.67769
1.64901
1.62353
1.60099
1.58114
1.56373
1.54855
1.53541
1.52414
1.51461
1.50668
1.50027
1.49528
1.49163
1.48907
1.4872
1.48701
1.48719
1.48879
1.49067
1.49386
1.49802
1.50316
1.50928
1.51637
1.52445
1.53351
1.54355
1.55458
1.56659
1.57959
1.59358
1.60857
1.62454
1.64152
1.65948
1.67843
1.69838
1.71932
1.74125
1.76418
1.7881
1.81302
1.83893
1.86584
1.89375
1.92266
1.95257
1.98348
2.01539
2.0483
2.0822
2.1171
2.153
2.18989
2.22776
2.2666
2.30643
2.34721
2.38894
2.43162
2.47522
2.51973
2.56514
2.61141
2.65854
2.70649
2.75524
2.80475
2.85499
2.90592
2.95751
3.00971
3.06247
3.11575
3.16949
3.22362
3.2781
3.33286
3.38783
3.44293
3.49809
0.359507
0.364919
0.382112
0.421208
0.467506
0.51448
0.555422
0.590038
0.615818
0.634476
0.647659
0.655638
0.660357
0.661268
0.660727
0.65931
0.656781
0.653788
0.650552
0.647232
0.643912
0.640654
0.637479
0.634405
0.631425
0.628545
0.625748
0.623045
0.620415
0.617872
0.615422
0.613052
0.610968
0.60906
0.607273
0.605531
0.603864
0.60222
0.60066
0.599155
0.597765
0.59644
0.595246
0.594142
0.593138
0.592204
0.591439
0.590776
0.590262
0.589833
0.589571
0.58936
0.589381
0.589433
0.589594
0.589865
0.590248
0.590732
0.591318
0.592
0.592782
0.593661
0.59464
0.595717
0.596894
0.598169
0.599544
0.601021
0.6026
0.604285
0.606075
0.607979
0.609994
0.612131
0.614386
0.616775
0.619292
0.621955
0.624758
0.627722
0.630841
0.634135
0.637602
0.64126
0.645112
0.64917
0.653447
0.657944
0.662689
0.667669
0.672924
0.678432
0.684244
0.690327
0.696743
0.703447
0.710514
0.717888
0.725651
0.733746
0.360171
0.335362
0.315666
0.300403
0.289846
0.282561
0.277768
0.274619
0.272435
0.270508
0.268858
0.267094
0.265378
0.263632
0.261777
0.260004
0.25829
0.256717
0.255269
0.254016
0.25292
0.252024
0.251304
0.250739
0.250364
0.250075
0.249982
0.2499
0.249935
0.250046
0.250211
0.250439
0.250652
0.250911
0.251101
0.251324
0.251459
0.251316
0.251242
0.25106
0.250805
0.250435
0.249941
0.249313
0.248569
0.247689
0.246696
0.245579
0.244355
0.243015
0.241578
0.240037
0.238406
0.236686
0.234881
0.232995
0.231035
0.229005
0.22691
0.224755
0.222544
0.220285
0.217981
0.21564
0.213264
0.210862
0.208436
0.205996
0.20354
0.201083
0.19862
0.196167
0.193718
0.191293
0.188879
0.186502
0.184146
0.181838
0.17956
0.177342
0.175161
0.173051
0.170986
0.169001
0.167071
0.165226
0.163447
0.161756
0.160145
0.158616
0.157191
0.155839
0.154607
0.153439
0.152409
0.151432
0.150618
0.14984
0.149252
0.148679
0.360372
0.334978
0.312979
0.29375
0.277035
0.262467
0.249785
0.238683
0.228937
0.220268
0.212507
0.205473
0.199037
0.193119
0.187621
0.182504
0.177714
0.173235
0.169031
0.165097
0.161407
0.157957
0.154732
0.151717
0.14891
0.146287
0.143851
0.141578
0.139464
0.137491
0.135657
0.133939
0.132332
0.130808
0.129402
0.128105
0.126901
0.125769
0.124698
0.123674
0.122692
0.121736
0.1208
0.119872
0.118949
0.11802
0.117083
0.116131
0.115162
0.114173
0.113162
0.112128
0.11107
0.109988
0.108883
0.107756
0.106607
0.105438
0.104251
0.103049
0.101833
0.100606
0.0993707
0.0981298
0.0968859
0.0956419
0.0944005
0.0931647
0.091937
0.0907203
0.0895169
0.08833
0.0871609
0.0860139
0.084888
0.0837899
0.0827152
0.0816736
0.0806573
0.0796777
0.0787261
0.0778123
0.0769303
0.0760853
0.0752752
0.0745014
0.0737635
0.0730621
0.0723956
0.0717659
0.0711696
0.070606
0.0700754
0.0695775
0.0691123
0.0686768
0.0682743
0.0678966
0.0675511
0.0672294
0.360356
0.334988
0.31287
0.293436
0.27626
0.260991
0.247356
0.235123
0.224108
0.214146
0.205099
0.196851
0.189296
0.182352
0.17594
0.169998
0.164471
0.159315
0.154488
0.149959
0.145698
0.141682
0.13789
0.134302
0.130907
0.127685
0.124629
0.121724
0.118964
0.116335
0.113832
0.111444
0.109176
0.10702
0.104968
0.103016
0.101158
0.0993889
0.0977029
0.0960946
0.0945592
0.0930913
0.0916864
0.0903397
0.0890471
0.0878044
0.086608
0.085454
0.0843395
0.0832614
0.0822171
0.0812042
0.0802208
0.0792647
0.0783347
0.0774293
0.0765474
0.0756881
0.0748508
0.0740349
0.0732401
0.072466
0.0717129
0.0709803
0.0702689
0.0695781
0.068909
0.0682609
0.0676351
0.0670309
0.0664496
0.0658906
0.0653547
0.0648425
0.0643525
0.0638884
0.0634447
0.0630294
0.0626323
0.062265
0.0619155
0.061594
0.0612931
0.0610141
0.0607616
0.0605229
0.0603157
0.0601162
0.0599497
0.059788
0.0596504
0.0595308
0.0594338
0.0593515
0.0592841
0.0592341
0.059189
0.0591584
0.059136
0.0591232
0.36035
0.334975
0.312829
0.293357
0.276123
0.260774
0.247027
0.234652
0.223459
0.213292
0.20402
0.195532
0.187736
0.180552
0.173912
0.167756
0.162034
0.156702
0.151721
0.147057
0.142681
0.138565
0.134688
0.131029
0.12757
0.124295
0.121189
0.11824
0.115436
0.112768
0.110227
0.107805
0.105493
0.103285
0.101175
0.0991574
0.0972275
0.0953801
0.0936112
0.0919165
0.0902924
0.0887352
0.0872418
0.085809
0.0844339
0.0831138
0.0818461
0.0806285
0.0794587
0.0783345
0.0772542
0.0762157
0.0752174
0.0742578
0.0733354
0.0724488
0.0715969
0.0707784
0.0699924
0.0692379
0.0685141
0.0678201
0.0671554
0.0665191
0.0659109
0.06533
0.0647762
0.0642487
0.0637475
0.0632718
0.0628216
0.0623964
0.0619955
0.0616196
0.0612665
0.0609386
0.0606319
0.0603506
0.0600886
0.0598519
0.0596337
0.0594382
0.0592635
0.0591049
0.0589737
0.0588471
0.0587576
0.0586607
0.0586076
0.0585322
0.0585379
0.058529
0.0585462
0.0585695
0.0586086
0.0586327
0.0586656
0.058719
0.0587758
0.0588266
0.360349
0.334967
0.312805
0.293311
0.276048
0.260667
0.246884
0.234471
0.223236
0.213024
0.203703
0.195165
0.187315
0.180077
0.173381
0.167171
0.161396
0.156013
0.150985
0.146277
0.141862
0.137713
0.133807
0.130124
0.126646
0.123356
0.120241
0.117287
0.114482
0.111817
0.10928
0.106863
0.104559
0.102361
0.100261
0.0982535
0.0963336
0.094496
0.0927363
0.0910501
0.0894336
0.0878832
0.0863957
0.0849681
0.0835976
0.0822815
0.0810175
0.0798033
0.0786369
0.0775163
0.0764399
0.0754058
0.0744127
0.0734589
0.0725433
0.0716645
0.0708214
0.070013
0.0692382
0.068496
0.0677858
0.0671066
0.0664577
0.0658383
0.0652481
0.064686
0.064152
0.063645
0.063165
0.0627112
0.0622832
0.0618808
0.0615032
0.0611503
0.0608214
0.0605163
0.0602347
0.0599752
0.0597394
0.0595233
0.0593317
0.0591565
0.0590076
0.0588703
0.058762
0.0586596
0.0585899
0.0585138
0.0585006
0.0584801
0.0584898
0.0585057
0.0585803
0.0585839
0.0586056
0.0586538
0.0587149
0.0588563
0.0589237
0.0590679
0.360348
0.334962
0.31279
0.293281
0.275999
0.260595
0.246788
0.234349
0.223089
0.212853
0.203509
0.194947
0.187076
0.179817
0.173101
0.166873
0.16108
0.15568
0.150636
0.145914
0.141484
0.137322
0.133405
0.129712
0.126225
0.122928
0.119806
0.116847
0.114039
0.111371
0.108833
0.106417
0.104115
0.101919
0.0998228
0.0978203
0.0959061
0.0940749
0.0923221
0.0906434
0.0890348
0.0874927
0.0860137
0.0845947
0.0832329
0.0819255
0.0806701
0.0794645
0.0783066
0.0771943
0.0761261
0.0751
0.0741147
0.0731686
0.0722605
0.0713891
0.0705532
0.0697519
0.068984
0.0682487
0.0675453
0.0668727
0.0662305
0.0656177
0.065034
0.0644785
0.063951
0.0634506
0.0629772
0.0625299
0.0621087
0.0617129
0.0613422
0.060996
0.0606743
0.0603759
0.0601019
0.0598492
0.0596215
0.0594122
0.0592293
0.0590614
0.0589203
0.0587935
0.0586882
0.0586055
0.0585241
0.0584916
0.058492
0.0585013
0.0585021
0.0585872
0.0586338
0.0586324
0.0586605
0.0587665
0.0588539
0.0588916
0.058936
0.0589999
0.360347
0.334959
0.31278
0.293261
0.275964
0.260543
0.246719
0.234261
0.222982
0.212727
0.203365
0.194787
0.1869
0.179627
0.172898
0.166657
0.160854
0.155445
0.150391
0.145661
0.141224
0.137056
0.133132
0.129434
0.125942
0.122641
0.119516
0.116554
0.113743
0.111073
0.108533
0.106116
0.103813
0.101616
0.0995204
0.0975185
0.0956051
0.0937751
0.0920238
0.0903469
0.0887404
0.0872006
0.0857242
0.084308
0.0829492
0.0816449
0.0803929
0.0791907
0.0780363
0.0769276
0.075863
0.0748407
0.0738591
0.0729169
0.0720125
0.0711449
0.0703128
0.0695152
0.0687511
0.0680197
0.0673199
0.0666512
0.0660127
0.0654039
0.064824
0.0642725
0.0637489
0.0632525
0.0627832
0.0623402
0.0619234
0.061532
0.061166
0.0608248
0.0605078
0.0602156
0.0599457
0.0597011
0.0594766
0.0592778
0.0590973
0.058942
0.0588036
0.0586903
0.0585884
0.0585207
0.0584426
0.0584418
0.0584393
0.0584461
0.0584955
0.0585371
0.0586378
0.0586453
0.0587109
0.0588442
0.0589493
0.0590316
0.0591289
0.0592182
0.360347
0.334957
0.312774
0.293246
0.275939
0.260506
0.246667
0.234195
0.222901
0.212631
0.203255
0.194663
0.186764
0.179478
0.172739
0.166488
0.160676
0.155259
0.150198
0.145461
0.141019
0.136846
0.132918
0.129215
0.12572
0.122416
0.119288
0.116324
0.113511
0.110839
0.108298
0.10588
0.103576
0.101379
0.0992827
0.0972805
0.0953671
0.0935373
0.0917864
0.09011
0.0885042
0.0869652
0.0854898
0.0840747
0.0827171
0.0814142
0.0801637
0.0789631
0.0778104
0.0767036
0.0756408
0.0746205
0.073641
0.0727008
0.0717986
0.0709333
0.0701036
0.0693085
0.0685469
0.0678182
0.0671211
0.0664554
0.0658198
0.0652143
0.0646375
0.0640896
0.0635695
0.0630771
0.0626117
0.062173
0.0617606
0.061374
0.0610132
0.060677
0.0603665
0.0600788
0.0598179
0.0595761
0.0593649
0.0591657
0.0590042
0.0588447
0.0587303
0.058612
0.0585377
0.0584598
0.0584438
0.0584268
0.0584565
0.0584845
0.05852
0.0585666
0.0586086
0.0586748
0.0587751
0.0589199
0.0591183
0.059208
0.059188
0.0592235
0.360346
0.334955
0.312769
0.293236
0.275921
0.260478
0.246629
0.234144
0.222839
0.212556
0.203168
0.194565
0.186655
0.17936
0.172611
0.166352
0.160532
0.155108
0.150041
0.145298
0.140851
0.136673
0.132741
0.129035
0.125537
0.12223
0.1191
0.116133
0.113319
0.110645
0.108103
0.105684
0.103379
0.101182
0.0990846
0.097082
0.0951684
0.0933385
0.0915877
0.0899115
0.088306
0.0867675
0.0852927
0.0838782
0.0825214
0.0812193
0.0799698
0.0787702
0.0776187
0.0765131
0.0754517
0.0744327
0.0734546
0.072516
0.0716156
0.070752
0.0699241
0.069131
0.0683715
0.067645
0.0669503
0.0662871
0.0656541
0.0650513
0.0644775
0.0639326
0.0634159
0.0629268
0.0624655
0.0620303
0.0616226
0.0612401
0.0608843
0.0605533
0.0602478
0.0599671
0.0597106
0.0594787
0.0592699
0.0590855
0.058922
0.0587855
0.0586619
0.0585763
0.0584862
0.0584481
0.0584194
0.0584654
0.0584761
0.0585762
0.0586297
0.058625
0.0586659
0.0587353
0.0588169
0.0589107
0.0590085
0.05911
0.0592289
0.0593538
0.360346
0.334954
0.312766
0.293228
0.275908
0.260457
0.246599
0.234105
0.222789
0.212497
0.203099
0.194487
0.186568
0.179263
0.172507
0.16624
0.160413
0.154983
0.14991
0.145163
0.140711
0.136528
0.132593
0.128883
0.125382
0.122073
0.11894
0.115972
0.113155
0.11048
0.107937
0.105516
0.103211
0.101012
0.0989145
0.0969115
0.0949975
0.0931673
0.0914163
0.0897401
0.0881347
0.0865964
0.0851218
0.0837076
0.0823513
0.0810498
0.0798008
0.0786019
0.0774511
0.0763463
0.0752857
0.0742678
0.0732907
0.0723533
0.0714541
0.0705919
0.0697654
0.0689739
0.068216
0.0674913
0.0667984
0.0661372
0.0655063
0.0649059
0.0643345
0.0637923
0.0632785
0.0627925
0.0623344
0.0619029
0.0614989
0.061121
0.0607689
0.0604439
0.0601421
0.0598689
0.0596165
0.0593931
0.05919
0.059014
0.0588594
0.05873
0.0586193
0.0585405
0.058462
0.058459
0.0584516
0.0584948
0.0585029
0.0585437
0.0585912
0.0586671
0.058746
0.0588464
0.0589459
0.0590674
0.0591876
0.0593255
0.0594609
0.0596079
0.360346
0.334953
0.312763
0.293223
0.275897
0.260441
0.246576
0.234074
0.22275
0.21245
0.203043
0.194423
0.186496
0.179184
0.17242
0.166147
0.160314
0.154878
0.1498
0.145048
0.140592
0.136405
0.132466
0.128754
0.125249
0.121937
0.118803
0.115832
0.113014
0.110337
0.107792
0.10537
0.103063
0.100864
0.0987656
0.0967619
0.0948473
0.0930166
0.0912652
0.0895887
0.0879831
0.0864447
0.0849701
0.0835561
0.0821998
0.0808984
0.0796497
0.0784511
0.0773007
0.0761964
0.0751364
0.0741191
0.0731428
0.0722061
0.0713077
0.0704465
0.0696211
0.0688307
0.0680741
0.0673508
0.0666594
0.0659998
0.0653708
0.0647722
0.0642031
0.0636631
0.0631521
0.0626684
0.0622141
0.0617849
0.0613858
0.06101
0.0606646
0.0603415
0.0600482
0.0597767
0.0595353
0.0593126
0.0591246
0.0589466
0.0588132
0.0586778
0.0585962
0.0585034
0.0584836
0.0584664
0.0585055
0.0585141
0.0585663
0.0586279
0.0586927
0.0587816
0.0588721
0.0589898
0.0591062
0.0592513
0.0593912
0.0595571
0.0597159
0.0598993
0.360346
0.334953
0.312761
0.293218
0.275889
0.260428
0.246557
0.234049
0.222719
0.212411
0.202998
0.19437
0.186436
0.179118
0.172348
0.166069
0.16023
0.154789
0.149706
0.14495
0.140489
0.136299
0.132357
0.128641
0.125134
0.121819
0.118682
0.11571
0.112889
0.110211
0.107665
0.105241
0.102933
0.100733
0.0986331
0.0966285
0.0947131
0.0928817
0.0911297
0.0894527
0.0878467
0.0863079
0.084833
0.0834187
0.0820622
0.0807609
0.079512
0.0783136
0.0771632
0.0760591
0.0749993
0.0739823
0.0730064
0.0720702
0.0711724
0.0703118
0.0694871
0.0686975
0.0679419
0.0672196
0.0665295
0.0658712
0.0652437
0.0646468
0.0640794
0.0635416
0.0630326
0.0625519
0.0620997
0.0616744
0.0612779
0.060907
0.0605645
0.0602477
0.0599573
0.0596947
0.0594551
0.0592454
0.0590569
0.0588972
0.0587612
0.0586492
0.0585597
0.0585175
0.0584918
0.0584976
0.0585321
0.0585553
0.0586212
0.0586907
0.0587741
0.0588787
0.0589966
0.059138
0.0592878
0.0594601
0.0596337
0.0598295
0.0600221
0.0602374
0.360346
0.334953
0.31276
0.293215
0.275883
0.260418
0.246542
0.234029
0.222693
0.212379
0.20296
0.194326
0.186386
0.179062
0.172286
0.166002
0.160158
0.154712
0.149625
0.144864
0.1404
0.136207
0.132261
0.128542
0.125032
0.121715
0.118576
0.115601
0.112779
0.110099
0.10755
0.105126
0.102816
0.100614
0.0985135
0.0965078
0.0945914
0.0927592
0.0910064
0.0893287
0.087722
0.0861826
0.0847071
0.0832924
0.0819355
0.0806337
0.0793846
0.0781859
0.0770354
0.0759312
0.0748714
0.0738544
0.0728786
0.0719426
0.071045
0.0701848
0.0693605
0.0685715
0.0678166
0.067095
0.0664058
0.0657486
0.0651223
0.0645268
0.0639609
0.0634252
0.0629178
0.06244
0.0619897
0.0615683
0.0611741
0.0608079
0.0604687
0.0601575
0.0598713
0.0596158
0.0593806
0.0591809
0.0589964
0.0588504
0.0587177
0.0586238
0.0585388
0.0585174
0.0585097
0.0585514
0.0585781
0.0586348
0.058692
0.0587837
0.0588983
0.0590258
0.0591728
0.0593344
0.0595141
0.0597098
0.059917
0.0601401
0.0603713
0.0606192
0.360346
0.334953
0.312759
0.293212
0.275878
0.26041
0.24653
0.234012
0.222671
0.212353
0.202928
0.194289
0.186344
0.179014
0.172234
0.165944
0.160096
0.154646
0.149555
0.14479
0.140322
0.136125
0.132176
0.128454
0.124942
0.121622
0.11848
0.115503
0.112679
0.109997
0.107447
0.105021
0.10271
0.100506
0.0984043
0.0963973
0.0944798
0.0926465
0.0908927
0.0892141
0.0876065
0.0860663
0.08459
0.0831746
0.081817
0.0805147
0.0792651
0.0780659
0.076915
0.0758104
0.0747503
0.0737331
0.0727571
0.0718211
0.0709235
0.0700633
0.0692393
0.0684505
0.067696
0.0669749
0.0662865
0.0656298
0.0650048
0.0644101
0.0638462
0.0633113
0.0628067
0.06233
0.0618835
0.0614634
0.0610744
0.0607093
0.0603777
0.0600665
0.0597917
0.0595345
0.059315
0.0591122
0.0589482
0.0587967
0.0586916
0.058589
0.0585309
0.0585409
0.058549
0.0585945
0.0586398
0.0586993
0.0587793
0.058883
0.0590183
0.0591665
0.0593473
0.0595372
0.0597584
0.0599831
0.060235
0.0604907
0.0607699
0.0610517
0.360346
0.334953
0.312759
0.29321
0.275874
0.260403
0.24652
0.233999
0.222653
0.21233
0.202901
0.194257
0.186307
0.178973
0.172188
0.165894
0.160042
0.154587
0.149492
0.144724
0.140253
0.136053
0.1321
0.128376
0.124861
0.121538
0.118394
0.115415
0.112589
0.109904
0.107353
0.104924
0.102612
0.100407
0.0983034
0.0962951
0.0943763
0.0925418
0.0907868
0.089107
0.0874983
0.0859571
0.0844799
0.0830635
0.0817051
0.080402
0.0791516
0.0779517
0.0768002
0.075695
0.0746344
0.0736168
0.0726403
0.071704
0.0708061
0.0699459
0.0691217
0.0683331
0.0675786
0.0668579
0.0661697
0.0655139
0.0648895
0.0642958
0.063733
0.0631997
0.0626967
0.0622222
0.0617776
0.061361
0.060974
0.0606142
0.0602848
0.0599805
0.059709
0.0594598
0.0592453
0.0590525
0.0588937
0.0587569
0.058656
0.0585735
0.0585295
0.0585666
0.0585815
0.0586375
0.0586748
0.0587664
0.0588812
0.0590188
0.0591783
0.0593594
0.0595661
0.0597895
0.060041
0.060304
0.0605969
0.0608943
0.0612216
0.0615468
0.360346
0.334953
0.312758
0.293209
0.275871
0.260397
0.246512
0.233987
0.222638
0.212311
0.202878
0.19423
0.186276
0.178938
0.172148
0.165851
0.159994
0.154536
0.149437
0.144665
0.140191
0.135987
0.132032
0.128305
0.124787
0.121462
0.118315
0.115334
0.112505
0.109819
0.107266
0.104836
0.102521
0.100315
0.0982094
0.0961996
0.0942793
0.0924433
0.090687
0.0890059
0.0873959
0.0858535
0.0843752
0.0829577
0.0815983
0.0802942
0.0790428
0.0778421
0.0766896
0.0755837
0.0745224
0.073504
0.072527
0.0715901
0.0706918
0.0698311
0.0690066
0.0682179
0.0674632
0.0667428
0.0660545
0.0653996
0.064775
0.0641831
0.0636201
0.0630894
0.0625863
0.0621158
0.061671
0.0612603
0.0608721
0.0605217
0.060189
0.0598986
0.0596222
0.0593909
0.0591708
0.0590004
0.0588338
0.0587279
0.0586151
0.0585581
0.0585732
0.0585836
0.0586303
0.0586739
0.0587478
0.0588631
0.0589909
0.0591579
0.0593391
0.0595595
0.0597953
0.0600661
0.0603528
0.0606689
0.0610021
0.0613564
0.0617298
0.0621143
0.360346
0.334953
0.312758
0.293208
0.275868
0.260393
0.246505
0.233977
0.222625
0.212295
0.202858
0.194206
0.186248
0.178906
0.172113
0.165812
0.159951
0.154489
0.149388
0.144612
0.140135
0.135928
0.13197
0.12824
0.124719
0.121392
0.118243
0.115259
0.112428
0.10974
0.107184
0.104752
0.102436
0.100228
0.098121
0.0961095
0.0941875
0.09235
0.0905922
0.0889096
0.0872983
0.0857545
0.0842748
0.0828561
0.0814955
0.0801902
0.0789377
0.0777358
0.0765823
0.0754754
0.0744131
0.0733938
0.0724161
0.0714783
0.0705795
0.069718
0.0688933
0.0681037
0.0673494
0.0666281
0.0659407
0.065285
0.0646618
0.0640693
0.0635085
0.0629774
0.0624776
0.0620065
0.0615667
0.0611552
0.0607741
0.0604231
0.0600989
0.0598097
0.0595421
0.0593145
0.059105
0.0589395
0.0587855
0.0586908
0.05858
0.0585748
0.0585744
0.058622
0.058663
0.058745
0.0588321
0.0589779
0.0591258
0.0593277
0.0595383
0.0598013
0.0600715
0.0603911
0.0607172
0.0610886
0.0614654
0.0618813
0.0623033
0.0627562
0.360347
0.334953
0.312758
0.293207
0.275866
0.260389
0.246499
0.233969
0.222614
0.21228
0.20284
0.194185
0.186224
0.178878
0.172082
0.165777
0.159913
0.154448
0.149343
0.144564
0.140083
0.135874
0.131913
0.12818
0.124657
0.121327
0.118176
0.115189
0.112357
0.109666
0.107108
0.104674
0.102356
0.100146
0.0980371
0.0960238
0.0941001
0.0922609
0.0905014
0.0888173
0.0872044
0.0856591
0.0841779
0.0827578
0.0813957
0.080089
0.0788352
0.0776321
0.0764774
0.0753692
0.0743058
0.0732854
0.0723067
0.0713679
0.0704683
0.0696059
0.0687807
0.0679903
0.0672358
0.0665138
0.0658268
0.0651702
0.0645484
0.0639549
0.0633965
0.0628643
0.0623684
0.0618957
0.0614622
0.0610476
0.060677
0.0603202
0.0600119
0.0597142
0.0594675
0.0592306
0.059046
0.0588705
0.0587492
0.0586364
0.0585841
0.0585711
0.0586149
0.0586573
0.058758
0.0588259
0.0589199
0.0591027
0.0592729
0.0595155
0.0597608
0.0600664
0.0603808
0.060748
0.0611251
0.0615503
0.0619863
0.0624642
0.0629545
0.0634779
0.360346
0.334953
0.312758
0.293206
0.275864
0.260386
0.246493
0.233961
0.222604
0.212268
0.202825
0.194166
0.186202
0.178853
0.172053
0.165745
0.159879
0.15441
0.149302
0.14452
0.140037
0.135824
0.131861
0.128125
0.124599
0.121267
0.118113
0.115124
0.112289
0.109596
0.107036
0.1046
0.10228
0.100068
0.097957
0.0959418
0.0940162
0.0921752
0.090414
0.0887281
0.0871135
0.0855665
0.0840837
0.082662
0.0812983
0.0799901
0.0787348
0.0775302
0.0763741
0.0752646
0.0741998
0.0731783
0.0721981
0.0712585
0.0703574
0.0694946
0.0686678
0.0678775
0.0671212
0.0664
0.0657111
0.0650562
0.0644322
0.0638416
0.0632808
0.0627528
0.0622541
0.0617875
0.061351
0.0609444
0.0605711
0.0602235
0.0599147
0.059626
0.059383
0.0591537
0.0589792
0.0588077
0.0587073
0.0585902
0.0585831
0.0585866
0.0586254
0.0586816
0.0587453
0.0588952
0.0590111
0.0592486
0.0594351
0.0597336
0.0600097
0.0603654
0.0607263
0.0611458
0.0615829
0.0620685
0.0625759
0.0631237
0.0636967
0.0642979
0.360347
0.334954
0.312758
0.293206
0.275863
0.260383
0.246489
0.233955
0.222595
0.212257
0.202811
0.19415
0.186182
0.178831
0.172028
0.165716
0.159847
0.154375
0.149264
0.14448
0.139993
0.135778
0.131812
0.128073
0.124545
0.12121
0.118053
0.115062
0.112225
0.10953
0.106968
0.104529
0.102207
0.0999926
0.09788
0.0958627
0.0939352
0.0920923
0.0903291
0.0886413
0.0870249
0.0854761
0.0839916
0.0825681
0.0812027
0.0798928
0.0786359
0.0774297
0.0762719
0.0751609
0.0740946
0.0730716
0.0720901
0.0711492
0.0702467
0.0693828
0.0685548
0.0677638
0.0670063
0.066285
0.0655947
0.0649407
0.0643149
0.0637267
0.0631632
0.0626398
0.0621373
0.0616783
0.0612361
0.0608414
0.0604597
0.0601293
0.0598095
0.0595436
0.0592878
0.0590862
0.0588987
0.0587595
0.0586483
0.0585603
0.0585839
0.0585985
0.0586573
0.0587266
0.0588145
0.0589889
0.0591255
0.0594149
0.0596049
0.0599808
0.0602699
0.0606998
0.0611032
0.0615914
0.0620949
0.0626535
0.0632416
0.0638747
0.0645384
0.0652392
0.360347
0.334954
0.312758
0.293206
0.275862
0.260381
0.246485
0.233949
0.222588
0.212247
0.202798
0.194135
0.186164
0.17881
0.172004
0.16569
0.159817
0.154343
0.149229
0.144442
0.139952
0.135735
0.131766
0.128025
0.124494
0.121156
0.117997
0.115004
0.112164
0.109466
0.106902
0.104461
0.102137
0.0999202
0.0978055
0.0957861
0.0938565
0.0920115
0.0902464
0.0885566
0.0869382
0.0853875
0.083901
0.0824756
0.0811084
0.0797966
0.078538
0.0773298
0.0761705
0.0750576
0.0739899
0.072965
0.0719823
0.0710393
0.0701362
0.0692701
0.0684418
0.0676484
0.0668914
0.0661675
0.0654785
0.0648216
0.0641982
0.063607
0.0630469
0.0625208
0.0620226
0.0615618
0.0611244
0.0607296
0.0603527
0.0600255
0.0597092
0.0594517
0.0591972
0.0590111
0.0588217
0.0587075
0.0585885
0.0585387
0.0585735
0.0585943
0.0586596
0.0587579
0.0588666
0.0590825
0.0592481
0.0595806
0.0598049
0.0602586
0.0605454
0.0610933
0.0615135
0.0621058
0.0626683
0.063319
0.0639977
0.0647297
0.0655001
0.0663193
0.360347
0.334954
0.312758
0.293205
0.275861
0.260379
0.246482
0.233944
0.22258
0.212237
0.202787
0.194121
0.186148
0.178791
0.171983
0.165666
0.15979
0.154313
0.149196
0.144406
0.139914
0.135694
0.131722
0.127978
0.124445
0.121105
0.117943
0.114947
0.112105
0.109405
0.106839
0.104396
0.102069
0.09985
0.097733
0.0957114
0.0937797
0.0919326
0.0901652
0.0884734
0.0868529
0.0853001
0.0838116
0.0823842
0.081015
0.0797012
0.0784406
0.0772306
0.0760693
0.0749546
0.073885
0.0728584
0.0718739
0.0709293
0.0700245
0.0691568
0.0683274
0.0675322
0.0667748
0.0660487
0.0653605
0.0647007
0.0640798
0.0634845
0.0629295
0.0623978
0.0619076
0.0614397
0.0610136
0.0606105
0.0602485
0.0599123
0.0596142
0.0593485
0.0591143
0.0589234
0.0587551
0.0586421
0.0585357
0.0585444
0.0585546
0.0585959
0.0586632
0.0588129
0.0589349
0.0592004
0.0593833
0.0597779
0.0600263
0.0605595
0.0608777
0.0615531
0.0619595
0.0627161
0.0633016
0.0640917
0.0648574
0.0657115
0.0666099
0.0675638
0.360347
0.334954
0.312759
0.293205
0.27586
0.260377
0.246478
0.233939
0.222574
0.212229
0.202776
0.194108
0.186133
0.178773
0.171962
0.165643
0.159765
0.154285
0.149165
0.144373
0.139878
0.135655
0.13168
0.127934
0.124398
0.121056
0.117892
0.114893
0.112049
0.109346
0.106777
0.104332
0.102002
0.0997815
0.0976622
0.0956384
0.0937043
0.091855
0.0900854
0.0883913
0.0867686
0.0852137
0.083723
0.0822935
0.080922
0.0796063
0.0783434
0.0771316
0.0759679
0.0748516
0.0737795
0.0727515
0.0717645
0.0708189
0.0699114
0.0690432
0.0682108
0.0674158
0.0666551
0.0659298
0.0652385
0.0645799
0.0639565
0.0633625
0.0628064
0.0622753
0.0617866
0.0613179
0.0608971
0.060491
0.0601395
0.0597969
0.0595172
0.0592395
0.0590347
0.0588255
0.058696
0.058566
0.0585008
0.058524
0.0585362
0.0586112
0.0586943
0.0588808
0.0590235
0.0593378
0.0595483
0.0600053
0.0602899
0.0608993
0.0612639
0.0620345
0.062484
0.0634212
0.0639881
0.0650055
0.0658155
0.0668529
0.0678859
0.0690016
0.360347
0.334955
0.312759
0.293205
0.275859
0.260375
0.246476
0.233935
0.222568
0.212221
0.202766
0.194096
0.186118
0.178756
0.171943
0.165621
0.15974
0.154258
0.149136
0.144341
0.139843
0.135618
0.131641
0.127892
0.124353
0.121008
0.117842
0.114841
0.111994
0.109289
0.106717
0.10427
0.101938
0.0997144
0.0975927
0.0955665
0.0936301
0.0917784
0.0900065
0.0883101
0.0866851
0.0851279
0.0836349
0.0822031
0.0808294
0.0795115
0.0782463
0.0770323
0.0758664
0.074748
0.0736737
0.0726438
0.0716544
0.0707073
0.0697972
0.0689281
0.0680927
0.0672977
0.0665334
0.0658095
0.0651135
0.0644582
0.063829
0.0632404
0.0626774
0.062154
0.061658
0.0611985
0.0607713
0.0603752
0.0600196
0.0596875
0.0594067
0.0591399
0.0589394
0.0587375
0.0586274
0.0584892
0.0584775
0.0584971
0.0585255
0.0586288
0.05873
0.0589513
0.0591216
0.059483
0.0597288
0.0602462
0.0605775
0.0612671
0.0616912
0.0625677
0.063091
0.0641694
0.0647962
0.0660756
0.0668674
0.0682138
0.0693306
0.0706876
0.360347
0.334955
0.312759
0.293205
0.275858
0.260373
0.246473
0.233931
0.222562
0.212214
0.202757
0.194084
0.186105
0.178741
0.171925
0.1656
0.159717
0.154233
0.149108
0.14431
0.13981
0.135582
0.131602
0.127851
0.12431
0.120962
0.117793
0.11479
0.11194
0.109233
0.106659
0.104209
0.101874
0.0996484
0.0975243
0.0954956
0.0935569
0.0917026
0.0899284
0.0882295
0.0866022
0.0850424
0.0835472
0.0821128
0.080737
0.0794163
0.0781492
0.0769324
0.0757648
0.0746434
0.0735676
0.0725347
0.071544
0.0705937
0.0696827
0.0688104
0.0679743
0.0671764
0.0664114
0.0656853
0.0649882
0.0643323
0.0637007
0.0631141
0.0625467
0.0620293
0.0615258
0.0610774
0.0606396
0.06026
0.0598918
0.0595801
0.0592872
0.0590445
0.0588312
0.0586629
0.0585329
0.0584471
0.058441
0.0584615
0.0585286
0.0586454
0.0587737
0.059024
0.0592268
0.0596386
0.0599246
0.0605127
0.0608934
0.0616812
0.0621659
0.0631731
0.0637722
0.0650185
0.0657411
0.0672437
0.0680949
0.0698306
0.0709369
0.0727114
0.360348
0.334955
0.312759
0.293205
0.275857
0.260372
0.24647
0.233927
0.222557
0.212207
0.202748
0.194074
0.186092
0.178726
0.171908
0.165581
0.159695
0.154208
0.149081
0.144281
0.139778
0.135547
0.131565
0.127811
0.124268
0.120917
0.117746
0.11474
0.111888
0.109178
0.106601
0.104148
0.101812
0.0995833
0.0974567
0.0954254
0.0934842
0.0916274
0.0898508
0.0881492
0.0865196
0.0849571
0.0834596
0.0820225
0.0806445
0.079321
0.0780518
0.076832
0.0756625
0.0745381
0.0734607
0.0724243
0.0714327
0.0704785
0.0695672
0.0686904
0.0678551
0.067052
0.0662889
0.0655568
0.064863
0.0642006
0.0635735
0.0629807
0.062418
0.061896
0.0613962
0.0609474
0.0605099
0.0601371
0.0597633
0.0594683
0.0591643
0.0589461
0.0587221
0.05858
0.0584484
0.0583741
0.0584088
0.0584306
0.0585257
0.0586409
0.058837
0.059085
0.0593528
0.0598022
0.0601345
0.0608091
0.0612442
0.0621434
0.0627
0.0638534
0.0645466
0.0659813
0.0668228
0.0685657
0.0695665
0.0716469
0.0728099
0.075173
0.360347
0.334956
0.312759
0.293205
0.275857
0.26037
0.246468
0.233923
0.222552
0.2122
0.20274
0.194063
0.18608
0.178711
0.171891
0.165562
0.159674
0.154184
0.149055
0.144252
0.139747
0.135514
0.131529
0.127773
0.124226
0.120874
0.117699
0.114691
0.111836
0.109124
0.106544
0.104089
0.10175
0.0995188
0.0973896
0.0953558
0.0934119
0.0915527
0.0897733
0.0880693
0.0864369
0.0848721
0.0833717
0.0819322
0.0805514
0.0792256
0.0779535
0.0767314
0.0755591
0.0744323
0.0733523
0.0723134
0.0713194
0.0703626
0.0694494
0.0685696
0.0677333
0.0669262
0.0661638
0.0654265
0.0647354
0.064066
0.0634446
0.0628425
0.0622892
0.0617556
0.0612689
0.060807
0.0603856
0.0600001
0.0596436
0.0593403
0.05905
0.0588355
0.0586144
0.0584972
0.0583493
0.0583399
0.0583619
0.058397
0.0585311
0.0586443
0.0589168
0.0591175
0.0595561
0.0599149
0.0604432
0.0611063
0.0616535
0.0626581
0.0633051
0.0646329
0.0654275
0.0670846
0.0680585
0.07009
0.0712618
0.0737071
0.0750971
0.078012
0.360348
0.334956
0.312759
0.293204
0.275856
0.260369
0.246465
0.23392
0.222547
0.212194
0.202732
0.194053
0.186068
0.178697
0.171875
0.165543
0.159653
0.154161
0.149029
0.144224
0.139717
0.135481
0.131494
0.127735
0.124186
0.12083
0.117654
0.114643
0.111785
0.10907
0.106488
0.104031
0.101688
0.0994549
0.0973229
0.0952867
0.0933399
0.0914782
0.0896959
0.0879896
0.0863541
0.084787
0.0832835
0.0818418
0.0804577
0.0791298
0.0778543
0.0766304
0.0754545
0.0743261
0.0732421
0.0722021
0.0712039
0.0702462
0.0693288
0.0684484
0.0676079
0.0668004
0.0660342
0.0652963
0.0646027
0.0639317
0.0633101
0.0627043
0.0621548
0.0616143
0.0611368
0.060664
0.0602584
0.0598577
0.0595244
0.0592022
0.0589428
0.0587066
0.0585248
0.058383
0.0582903
0.0582775
0.058317
0.0583736
0.0585169
0.0586559
0.0589717
0.0592125
0.0597334
0.0600855
0.0608522
0.0613338
0.0622529
0.0631413
0.064065
0.0654665
0.0664157
0.0683294
0.0694675
0.0718351
0.0732196
0.0761202
0.0777889
0.0812842
0.360348
0.334956
0.312759
0.293204
0.275855
0.260367
0.246463
0.233916
0.222542
0.212187
0.202724
0.194044
0.186056
0.178683
0.171859
0.165525
0.159633
0.154139
0.149004
0.144197
0.139687
0.135449
0.131459
0.127698
0.124146
0.120788
0.117609
0.114595
0.111735
0.109017
0.106433
0.103972
0.101627
0.0993914
0.0972565
0.0952177
0.0932681
0.0914038
0.0896186
0.0879097
0.0862712
0.0847016
0.083195
0.081751
0.0803635
0.0790335
0.0777545
0.0765286
0.0753489
0.0742188
0.0731308
0.0720896
0.0710868
0.0701288
0.0692061
0.0683262
0.0674797
0.0666739
0.0659009
0.0651659
0.0644649
0.0637979
0.063169
0.0625678
0.0620123
0.0614754
0.0609958
0.0605233
0.0601224
0.0597168
0.0593972
0.0590648
0.0588276
0.0585804
0.0584236
0.0582787
0.0582106
0.0582096
0.0582657
0.0583337
0.0585014