/*--------------------------------*- C++ -*----------------------------------*\
| =========                 |                                                 |
| \\      /  F ield         | OpenFOAM: The Open Source CFD Toolbox           |
|  \\    /   O peration     | Version:  2406                                  |
|   \\  /    A nd           | Website:  www.openfoam.com                      |
|    \\/     M anipulation  |                                                 |
\*---------------------------------------------------------------------------*/
FoamFile
{
    version     2.0;
    format      ascii;
    arch        "LSB;label=32;scalar=64";
    class       volScalarField;
    location    "2000";
    object      nut;
}
// * * * * * * * * * * * * * * * * * * * * * * * * * * * * * * * * * * * * * //

dimensions      [0 2 -1 0 0 0 0];

internalField   nonuniform List<scalar> 
190000
(
0.000811733
0.00104496
0.00123305
0.00137723
0.00147916
0.00154739
0.00158652
0.00160762
0.00160813
0.00160349
0.00159199
0.00157499
0.00155617
0.00153696
0.00151816
0.00150032
0.00148372
0.00146849
0.00145467
0.00144222
0.00143107
0.00142114
0.00141234
0.00140459
0.00139779
0.00139189
0.00138682
0.00138251
0.00137894
0.00137604
0.0013738
0.00137215
0.00137101
0.00137018
0.00137013
0.00136969
0.00137147
0.00137193
0.00137344
0.0013754
0.0013778
0.00138064
0.00138392
0.00138765
0.0013918
0.0013964
0.00140142
0.00140687
0.00141274
0.00141902
0.00142572
0.00143282
0.00144033
0.00144823
0.00145651
0.00146518
0.00147422
0.00148363
0.00149341
0.00150353
0.00151401
0.00152483
0.00153598
0.00154746
0.00155926
0.00157137
0.00158379
0.00159651
0.00160952
0.00162282
0.00163639
0.00165024
0.00166434
0.0016787
0.0016933
0.00170813
0.0017232
0.00173847
0.00175396
0.00176964
0.00178551
0.00180155
0.00181775
0.0018341
0.00185059
0.0018672
0.00188393
0.00190075
0.00191765
0.00193462
0.00195164
0.0019687
0.00198577
0.00200285
0.0020199
0.00203692
0.00205389
0.00207078
0.00208757
0.00210425
0.000838063
0.000829979
0.000770772
0.000743457
0.000725438
0.0007283
0.00074431
0.000765735
0.000790251
0.000813834
0.000837498
0.000860825
0.000879104
0.000895773
0.000912159
0.000927896
0.000941399
0.000953632
0.000964679
0.000974645
0.00098359
0.000991602
0.000998726
0.00100504
0.00101057
0.00101541
0.00101955
0.00102311
0.00102604
0.00102851
0.00103039
0.00103195
0.00103267
0.00103272
0.00103219
0.00103109
0.00102971
0.00102784
0.0010257
0.00102322
0.00102059
0.00101763
0.00101457
0.00101137
0.00100735
0.00100383
0.00100018
0.000996321
0.000992378
0.00098823
0.000984079
0.000979639
0.000975448
0.000970865
0.000966209
0.00096147
0.000956661
0.000951769
0.000946801
0.00094176
0.000936658
0.000931502
0.000926304
0.000921071
0.000915814
0.000910541
0.00090526
0.000899984
0.00089472
0.000889483
0.000884278
0.000879127
0.000874027
0.000869011
0.00086407
0.000859241
0.000854512
0.000849925
0.000845465
0.000841178
0.000837046
0.000833116
0.000829372
0.000825859
0.000822566
0.000819528
0.000816748
0.000814244
0.000812041
0.000810129
0.000808563
0.000807306
0.000806434
0.000805887
0.000805765
0.000805986
0.000806668
0.000807713
0.00080925
0.000811176
0.000850088
0.000842866
0.000837951
0.000822342
0.000805826
0.000769477
0.000737659
0.000707116
0.000679072
0.000655604
0.000638362
0.000625003
0.000616636
0.000611742
0.000607189
0.000605926
0.000606217
0.000607887
0.000610528
0.000614095
0.00061826
0.000623015
0.000628182
0.000633619
0.000639437
0.000645203
0.000651402
0.000657218
0.000663186
0.000669195
0.000675087
0.000681088
0.000686632
0.000692289
0.000697154
0.000701749
0.000705606
0.000707751
0.00071028
0.000712184
0.000713676
0.000714605
0.000714913
0.000714611
0.000713713
0.000712219
0.00071021
0.00070765
0.00070459
0.000701007
0.000696961
0.000692428
0.000687463
0.000682067
0.000676253
0.000670042
0.000663456
0.000656514
0.000649237
0.000641646
0.000633761
0.00062561
0.000617211
0.000608592
0.000599769
0.000590776
0.000581622
0.000572346
0.000562952
0.000553487
0.000543946
0.000534384
0.000524784
0.000515217
0.000505645
0.000496158
0.000486697
0.00047737
0.000468097
0.000459006
0.00044999
0.000441201
0.000432501
0.000424076
0.000415744
0.000407733
0.000399813
0.000392259
0.000384784
0.000377722
0.000370857
0.000364206
0.000357849
0.000351642
0.000345822
0.000340112
0.000334865
0.000329656
0.000324994
0.000320275
0.000850101
0.000844106
0.000839335
0.000834006
0.000829419
0.00082334
0.000815944
0.00080676
0.000795821
0.000782939
0.000769003
0.000754169
0.000739183
0.000724607
0.00071033
0.000696821
0.000684134
0.000672408
0.000661581
0.000651719
0.00064272
0.000634588
0.000627253
0.000620652
0.000614771
0.000609505
0.000604855
0.000600751
0.000597123
0.000593989
0.000591233
0.000588914
0.000586894
0.000585241
0.000583783
0.000582512
0.000581372
0.000580272
0.000579198
0.000578126
0.000577047
0.000575922
0.00057473
0.000573442
0.000572048
0.000570521
0.000568856
0.000567037
0.000565061
0.000562918
0.000560609
0.00055813
0.000555483
0.000552668
0.000549692
0.000546557
0.000543273
0.000539846
0.000536287
0.000532606
0.000528814
0.000524924
0.000520949
0.000516902
0.000512796
0.000508645
0.000504465
0.000500265
0.000496064
0.00049187
0.000487702
0.000483568
0.000479479
0.000475456
0.000471487
0.00046762
0.000463807
0.000460129
0.000456504
0.000453036
0.000449626
0.000446374
0.000443196
0.000440162
0.000437211
0.000434396
0.000431652
0.000429045
0.000426482
0.000424053
0.000421651
0.00041933
0.000417013
0.000414786
0.000412537
0.000410363
0.000408144
0.000405969
0.000403712
0.000401518
0.000849982
0.000844296
0.000839151
0.000834353
0.000829955
0.000825812
0.000821862
0.000817966
0.00081405
0.000809966
0.000805651
0.000801038
0.000796085
0.000790828
0.000785258
0.000779434
0.000773387
0.000767193
0.000760888
0.000754545
0.000748198
0.000741904
0.000735692
0.000729604
0.000723659
0.000717893
0.000712305
0.000706936
0.000701767
0.000696855
0.000692179
0.000687764
0.00068354
0.000679527
0.00067572
0.000672116
0.000668708
0.000665487
0.000662444
0.00065957
0.000656858
0.000654296
0.000651879
0.000649598
0.000647445
0.000645414
0.000643498
0.000641691
0.00063999
0.000638388
0.000636885
0.000635476
0.000634161
0.000632938
0.000631807
0.000630767
0.000629821
0.000628969
0.000628214
0.000627556
0.000627002
0.000626551
0.000626211
0.000625979
0.000625867
0.000625868
0.000626
0.000626248
0.000626636
0.000627145
0.000627799
0.000628581
0.000629504
0.000630573
0.000631761
0.000633124
0.00063457
0.000636227
0.000637924
0.000639854
0.00064181
0.000643963
0.000646195
0.000648509
0.000651016
0.000653449
0.000656186
0.000658724
0.000661619
0.000664254
0.000667075
0.000669945
0.000672989
0.000676031
0.000679091
0.000682235
0.000685205
0.000688227
0.000691159
0.000694075
0.000849962
0.000844302
0.00083911
0.00083432
0.000829886
0.00082576
0.000821909
0.000818295
0.000814887
0.000811651
0.000808554
0.000805567
0.000802659
0.000799807
0.000796988
0.000794186
0.000791385
0.00078858
0.000785762
0.00078293
0.000780087
0.000777232
0.000774376
0.000771518
0.000768674
0.000765844
0.000763049
0.000760293
0.00075759
0.000754922
0.000752297
0.000749724
0.000747211
0.000744765
0.000742392
0.000740097
0.000737887
0.000735765
0.000733735
0.000731801
0.000729965
0.000728229
0.000726594
0.000725063
0.000723635
0.000722311
0.000721093
0.000719979
0.000718971
0.000718067
0.000717269
0.000716577
0.000715989
0.000715507
0.00071513
0.000714859
0.000714694
0.000714635
0.000714684
0.000714837
0.000715101
0.000715469
0.00071595
0.000716535
0.000717234
0.000718038
0.000718958
0.000719981
0.000721121
0.000722367
0.000723726
0.000725196
0.00072677
0.000728465
0.000730249
0.00073217
0.000734156
0.000736297
0.000738481
0.000740827
0.000743216
0.000745727
0.000748353
0.00075096
0.000753868
0.0007565
0.000759704
0.000762351
0.000765782
0.000768294
0.000772622
0.000776243
0.000780279
0.000784202
0.000788339
0.000791805
0.000795376
0.000799261
0.000803152
0.000806709
0.000849959
0.000844295
0.000839093
0.00083429
0.000829838
0.000825693
0.000821822
0.000818194
0.000814783
0.000811568
0.000808527
0.000805643
0.000802899
0.000800282
0.000797778
0.000795375
0.000793062
0.000790831
0.000788674
0.000786582
0.00078455
0.000782574
0.000780648
0.00077877
0.000776936
0.000775147
0.000773396
0.000771681
0.000770003
0.000768359
0.000766752
0.000765182
0.00076365
0.000762157
0.000760706
0.000759296
0.000757931
0.000756613
0.000755343
0.000754124
0.000752958
0.000751846
0.000750792
0.000749796
0.000748862
0.00074799
0.000747182
0.000746441
0.000745768
0.000745163
0.00074463
0.000744168
0.00074378
0.000743467
0.00074323
0.000743069
0.000742988
0.000742985
0.000743064
0.000743223
0.000743468
0.000743793
0.000744208
0.000744705
0.000745294
0.000745968
0.000746737
0.000747592
0.000748544
0.000749587
0.000750725
0.000751961
0.00075329
0.00075472
0.000756245
0.000757868
0.000759596
0.000761406
0.000763343
0.000765329
0.000767485
0.000769631
0.000772016
0.000774297
0.00077692
0.000779314
0.000782188
0.000784527
0.000788214
0.000791361
0.000795015
0.000798521
0.000803401
0.00080607
0.000809031
0.00081248
0.000816122
0.000821774
0.000825324
0.000830897
0.000849958
0.000844291
0.000839083
0.000834272
0.000829808
0.00082565
0.000821762
0.000818116
0.000814687
0.000811452
0.000808394
0.000805495
0.000802742
0.000800122
0.000797624
0.000795239
0.000792957
0.000790771
0.000788675
0.000786661
0.000784725
0.000782862
0.000781068
0.000779338
0.000777669
0.000776059
0.000774505
0.000773005
0.000771555
0.000770156
0.000768805
0.000767501
0.000766242
0.000765027
0.000763857
0.000762731
0.000761649
0.00076061
0.000759616
0.000758666
0.000757761
0.000756901
0.000756088
0.000755322
0.000754604
0.000753934
0.000753315
0.000752746
0.00075223
0.000751767
0.000751359
0.000751007
0.000750713
0.000750477
0.000750303
0.00075019
0.000750141
0.000750157
0.000750241
0.000750392
0.000750616
0.00075091
0.000751281
0.000751725
0.000752251
0.000752854
0.000753543
0.000754313
0.000755172
0.000756117
0.000757153
0.000758281
0.000759502
0.000760817
0.000762232
0.000763734
0.000765354
0.000767038
0.000768877
0.000770732
0.000772796
0.000774821
0.000777091
0.000779325
0.000781701
0.000784286
0.000786521
0.00078969
0.000793404
0.000797005
0.000800062
0.000805118
0.000808924
0.000811061
0.000813785
0.000818401
0.000822398
0.000824864
0.000827447
0.000830455
0.000849957
0.000844289
0.000839077
0.00083426
0.000829788
0.00082562
0.000821721
0.000818062
0.000814618
0.000811369
0.000808295
0.000805381
0.000802612
0.000799977
0.000797465
0.000795066
0.000792772
0.000790576
0.000788471
0.000786451
0.000784511
0.000782647
0.000780855
0.00077913
0.00077747
0.000775871
0.000774331
0.000772848
0.000771419
0.000770043
0.000768718
0.000767443
0.000766216
0.000765037
0.000763904
0.000762817
0.000761776
0.000760778
0.000759826
0.000758918
0.000758054
0.000757235
0.000756461
0.000755731
0.000755047
0.000754409
0.000753819
0.000753275
0.000752781
0.000752336
0.000751941
0.000751599
0.000751311
0.000751078
0.000750902
0.000750783
0.000750723
0.000750726
0.000750791
0.000750922
0.000751121
0.000751389
0.000751729
0.000752144
0.000752635
0.000753204
0.000753856
0.000754591
0.000755413
0.000756322
0.000757325
0.000758418
0.000759609
0.000760899
0.00076228
0.000763781
0.000765353
0.000767079
0.00076884
0.000770795
0.000772755
0.000774929
0.000777094
0.000779497
0.000781787
0.000784565
0.000786705
0.000790508
0.000793961
0.000797224
0.000801457
0.00080505
0.000810019
0.000812046
0.000815507
0.000820605
0.000824866
0.00082828
0.000831953
0.000835304
0.000849957
0.000844287
0.000839073
0.000834252
0.000829775
0.0008256
0.000821692
0.000818023
0.000814569
0.000811308
0.000808222
0.000805296
0.000802514
0.000799867
0.000797342
0.000794931
0.000792625
0.000790416
0.0007883
0.000786269
0.000784318
0.000782444
0.000780642
0.000778907
0.000777238
0.000775631
0.000774084
0.000772594
0.000771158
0.000769776
0.000768446
0.000767166
0.000765935
0.000764751
0.000763615
0.000762524
0.00076148
0.00076048
0.000759525
0.000758615
0.000757749
0.000756928
0.000756152
0.00075542
0.000754734
0.000754093
0.0007535
0.000752954
0.000752457
0.000752009
0.000751613
0.000751268
0.000750977
0.00075074
0.000750559
0.000750438
0.000750375
0.000750375
0.000750438
0.00075057
0.000750767
0.000751038
0.000751379
0.0007518
0.000752295
0.000752876
0.000753536
0.000754287
0.000755124
0.000756054
0.00075708
0.000758199
0.000759426
0.000760741
0.000762184
0.000763692
0.000765378
0.000767059
0.000769029
0.000770848
0.000773142
0.000775079
0.000777681
0.000779816
0.000782618
0.000784952
0.000788545
0.000791681
0.00079576
0.000799379
0.000802902
0.000806288
0.000809299
0.000812774
0.000816809
0.000822297
0.000827877
0.000830835
0.00083023
0.000831333
0.000849956
0.000844286
0.00083907
0.000834247
0.000829766
0.000825585
0.000821671
0.000817995
0.000814532
0.000811263
0.000808167
0.000805231
0.00080244
0.000799782
0.000797247
0.000794825
0.000792509
0.000790291
0.000788165
0.000786124
0.000784164
0.000782281
0.000780469
0.000778727
0.000777049
0.000775433
0.000773878
0.000772379
0.000770937
0.000769547
0.000768209
0.000766922
0.000765684
0.000764494
0.000763351
0.000762254
0.000761204
0.000760199
0.000759239
0.000758323
0.000757453
0.000756627
0.000755847
0.000755111
0.000754422
0.000753779
0.000753184
0.000752636
0.000752139
0.000751691
0.000751294
0.000750949
0.000750659
0.000750424
0.000750246
0.000750129
0.00075007
0.000750077
0.000750146
0.000750287
0.000750493
0.000750777
0.00075113
0.000751566
0.000752078
0.000752676
0.000753361
0.000754129
0.000755
0.000755949
0.000757016
0.000758161
0.00075943
0.000760786
0.000762265
0.000763842
0.000765541
0.000767344
0.000769271
0.000771313
0.000773445
0.000775786
0.00077803
0.000780796
0.00078304
0.000786181
0.000789263
0.000793775
0.0007972
0.000802386
0.000806064
0.000807877
0.000810486
0.000813985
0.000816966
0.000819334
0.000822324
0.00082412
0.00082691
0.000830142
0.000849956
0.000844285
0.000839069
0.000834243
0.000829759
0.000825575
0.000821656
0.000817974
0.000814505
0.000811228
0.000808125
0.000805181
0.000802381
0.000799715
0.000797172
0.000794742
0.000792417
0.000790191
0.000788056
0.000786008
0.00078404
0.000782149
0.00078033
0.000778579
0.000776894
0.000775272
0.000773709
0.000772204
0.000770754
0.000769358
0.000768014
0.00076672
0.000765476
0.000764281
0.000763132
0.00076203
0.000760975
0.000759964
0.000759
0.00075808
0.000757206
0.000756376
0.000755592
0.000754854
0.000754163
0.000753518
0.000752922
0.000752373
0.000751875
0.000751427
0.00075103
0.000750687
0.000750398
0.000750166
0.000749992
0.000749878
0.000749825
0.000749838
0.000749914
0.000750064
0.000750279
0.000750574
0.00075094
0.00075139
0.000751918
0.000752534
0.000753239
0.000754028
0.000754924
0.000755901
0.000756994
0.000758181
0.000759468
0.000760892
0.000762374
0.000764049
0.000765743
0.000767657
0.0007696
0.000771735
0.000773941
0.000776331
0.00077871
0.000781522
0.000783804
0.000787774
0.000791064
0.000795409
0.000798341
0.000801551
0.000804943
0.000808578
0.000811958
0.000814516
0.000817015
0.000820954
0.000823037
0.000826872
0.000829209
0.00083219
0.000849956
0.000844285
0.000839068
0.000834241
0.000829755
0.000825567
0.000821645
0.000817958
0.000814484
0.000811201
0.000808092
0.000805141
0.000802335
0.000799662
0.000797112
0.000794674
0.000792343
0.000790109
0.000787967
0.000785912
0.000783937
0.000782039
0.000780214
0.000778457
0.000776765
0.000775136
0.000773568
0.000772057
0.000770601
0.000769199
0.00076785
0.000766551
0.000765302
0.000764101
0.000762947
0.000761841
0.000760781
0.000759766
0.000758797
0.000757874
0.000756996
0.000756163
0.000755377
0.000754637
0.000753943
0.000753297
0.000752699
0.00075215
0.00075165
0.000751202
0.000750806
0.000750464
0.000750177
0.000749947
0.000749776
0.000749666
0.000749618
0.000749637
0.000749721
0.000749877
0.000750103
0.000750408
0.000750787
0.00075125
0.000751796
0.000752425
0.000753157
0.000753958
0.000754894
0.000755875
0.000757031
0.000758207
0.000759589
0.000760984
0.000762596
0.000764217
0.000766095
0.000767906
0.000770125
0.000772061
0.000774689
0.000776735
0.000779742
0.000781942
0.000785637
0.000788934
0.000793281
0.000796361
0.00080009
0.00080375
0.000807326
0.000810387
0.000812854
0.000815859
0.00081903
0.000822731
0.000825156
0.000829154
0.000832195
0.000837262
0.000849956
0.000844285
0.000839067
0.00083424
0.000829752
0.000825562
0.000821637
0.000817947
0.000814468
0.000811181
0.000808067
0.00080511
0.000802298
0.000799619
0.000797063
0.000794619
0.000792281
0.000790042
0.000787894
0.000785832
0.000783851
0.000781947
0.000780116
0.000778353
0.000776656
0.000775022
0.000773447
0.000771931
0.00077047
0.000769063
0.000767709
0.000766405
0.000765151
0.000763945
0.000762787
0.000761677
0.000760612
0.000759594
0.000758621
0.000757694
0.000756814
0.000755979
0.00075519
0.000754447
0.000753751
0.000753103
0.000752503
0.000751953
0.000751453
0.000751004
0.000750608
0.000750267
0.000749982
0.000749754
0.000749586
0.00074948
0.000749437
0.000749461
0.000749552
0.000749716
0.000749951
0.000750266
0.000750656
0.000751136
0.000751693
0.000752347
0.000753087
0.000753926
0.000754867
0.000755901
0.000757059
0.000758305
0.000759684
0.000761173
0.000762765
0.00076453
0.000766343
0.000768379
0.000770464
0.000772722
0.000775154
0.00077761
0.000780267
0.00078355
0.000786953
0.000790484
0.000794616
0.000797608
0.000801474
0.000805215
0.000808196
0.000811409
0.000814541
0.00081762
0.000821428
0.000825084
0.000829693
0.000834105
0.000838514
0.000843174
0.000849956
0.000844285
0.000839067
0.000834239
0.00082975
0.000825558
0.000821631
0.000817938
0.000814456
0.000811165
0.000808046
0.000805085
0.000802269
0.000799585
0.000797023
0.000794574
0.000792231
0.000789985
0.000787832
0.000785765
0.000783779
0.000781869
0.000780032
0.000778264
0.000776562
0.000774923
0.000773343
0.000771822
0.000770356
0.000768945
0.000767585
0.000766277
0.000765019
0.000763809
0.000762647
0.000761532
0.000760463
0.000759442
0.000758466
0.000757536
0.000756652
0.000755814
0.000755022
0.000754277
0.000753579
0.000752929
0.000752327
0.000751776
0.000751274
0.000750826
0.00075043
0.00075009
0.000749805
0.00074958
0.000749414
0.000749312
0.000749272
0.000749302
0.000749399
0.000749571
0.000749815
0.00075014
0.000750543
0.000751035
0.000751608
0.000752283
0.000753037
0.000753909
0.000754861
0.000755943
0.00075711
0.000758419
0.000759808
0.000761377
0.000762976
0.000764855
0.000766647
0.000768863
0.000770878
0.000773399
0.000775703
0.000778512
0.000781044
0.000784707
0.00078831
0.000792561
0.000796183
0.000799712
0.000803246
0.000806683
0.000810483
0.000813094
0.000816978
0.000819361
0.000823298
0.000828885
0.000833629
0.000838262
0.000843016
0.000848134
0.000849956
0.000844286
0.000839067
0.000834239
0.000829749
0.000825556
0.000821626
0.000817931
0.000814447
0.000811152
0.00080803
0.000805065
0.000802245
0.000799556
0.000796989
0.000794536
0.000792188
0.000789938
0.00078778
0.000785707
0.000783716
0.000781802
0.00077996
0.000778187
0.00077648
0.000774836
0.000773252
0.000771726
0.000770256
0.00076884
0.000767476
0.000766163
0.000764901
0.000763687
0.000762521
0.000761402
0.00076033
0.000759305
0.000758326
0.000757393
0.000756505
0.000755664
0.000754869
0.000754122
0.000753421
0.000752769
0.000752166
0.000751613
0.00075111
0.000750662
0.000750265
0.000749926
0.000749641
0.000749419
0.000749254
0.000749156
0.00074912
0.000749155
0.000749259
0.000749436
0.000749692
0.000750023
0.000750445
0.00075094
0.000751543
0.000752216
0.000753016
0.000753881
0.000754897
0.000755963
0.000757221
0.000758493
0.000760024
0.000761511
0.000763325
0.000765068
0.000767151
0.000769184
0.000771572
0.000773838
0.000776649
0.000779102
0.000782064
0.000786419
0.000790077
0.000794272
0.000797974
0.000801039
0.000805115
0.000808218
0.000811263
0.000815151
0.00081955
0.000823952
0.000829047
0.000833386
0.000838318
0.000843068
0.000848403
0.000853495
0.000849956
0.000844286
0.000839068
0.000834239
0.000829748
0.000825554
0.000821623
0.000817926
0.00081444
0.000811143
0.000808017
0.000805049
0.000802225
0.000799532
0.000796962
0.000794504
0.000792152
0.000789897
0.000787735
0.000785658
0.000783663
0.000781744
0.000779897
0.00077812
0.000776408
0.00077476
0.000773171
0.000771641
0.000770166
0.000768746
0.000767378
0.000766061
0.000764794
0.000763576
0.000762406
0.000761284
0.000760209
0.00075918
0.000758197
0.000757261
0.00075637
0.000755526
0.000754728
0.000753978
0.000753275
0.000752621
0.000752015
0.000751461
0.000750957
0.000750507
0.00075011
0.000749771
0.000749487
0.000749267
0.000749103
0.000749009
0.000748975
0.000749017
0.000749124
0.000749312
0.000749573
0.000749918
0.000750347
0.000750861
0.000751476
0.00075217
0.00075299
0.000753881
0.000754919
0.000756026
0.000757302
0.000758639
0.000760183
0.000761753
0.000763595
0.000765421
0.000767555
0.000769698
0.000772109
0.000774579
0.00077734
0.000780123
0.000783217
0.000788095
0.000791559
0.00079587
0.000798619
0.000802909
0.000806737
0.000809509
0.000813783
0.000818031
0.000822788
0.000827366
0.000832422
0.000837416
0.000843038
0.000848315
0.000854186
0.000859604
0.000849956
0.000844286
0.000839068
0.000834239
0.000829748
0.000825553
0.000821621
0.000817923
0.000814434
0.000811135
0.000808007
0.000805036
0.000802209
0.000799513
0.000796939
0.000794478
0.000792121
0.000789863
0.000787696
0.000785615
0.000783616
0.000781692
0.000779842
0.00077806
0.000776345
0.000774692
0.000773099
0.000771564
0.000770086
0.000768661
0.000767289
0.000765968
0.000764697
0.000763476
0.000762302
0.000761176
0.000760097
0.000759065
0.000758078
0.000757138
0.000756244
0.000755397
0.000754596
0.000753843
0.000753137
0.00075248
0.000751873
0.000751317
0.000750811
0.00075036
0.000749963
0.000749624
0.000749341
0.00074912
0.000748959
0.000748867
0.000748837
0.000748885
0.000748995
0.000749195
0.000749456
0.000749823
0.000750248
0.000750796
0.000751402
0.000752147
0.000752949
0.000753912
0.00075492
0.000756136
0.000757347
0.000758861
0.000760277
0.000762114
0.000763766
0.000765937
0.000767843
0.000770405
0.000772514
0.000775567
0.000777909
0.000781048
0.000785618
0.00078933
0.000793543
0.00079699
0.000800769
0.000804776
0.000807331
0.000811774
0.000815914
0.000820835
0.000825829
0.000831135
0.000836545
0.000842176
0.000848007
0.000853908
0.000860101
0.000866174
0.000849956
0.000844287
0.000839069
0.00083424
0.000829748
0.000825553
0.00082162
0.00081792
0.00081443
0.000811129
0.000807999
0.000805026
0.000802195
0.000799496
0.000796919
0.000794455
0.000792095
0.000789833
0.000787662
0.000785578
0.000783574
0.000781647
0.000779793
0.000778007
0.000776287
0.000774631
0.000773034
0.000771495
0.000770013
0.000768584
0.000767208
0.000765883
0.000764608
0.000763383
0.000762206
0.000761076
0.000759993
0.000758957
0.000757967
0.000757023
0.000756125
0.000755275
0.000754471
0.000753715
0.000753006
0.000752347
0.000751737
0.000751178
0.000750672
0.000750219
0.000749822
0.000749481
0.0007492
0.000748977
0.000748822
0.000748727
0.000748707
0.00074875
0.000748877
0.000749071
0.000749356
0.000749715
0.000750172
0.000750713
0.00075136
0.000752095
0.000752954
0.000753901
0.00075499
0.000756178
0.000757498
0.000758981
0.000760516
0.000762352
0.00076411
0.000766314
0.000768345
0.000770938
0.000773197
0.000776391
0.000778582
0.000782861
0.00078678
0.000791154
0.000794942
0.000799066
0.000802488
0.000805756
0.00080957
0.000813721
0.000818533
0.00082435
0.000829677
0.000835536
0.000841288
0.000847574
0.000853733
0.000860295
0.000866764
0.000873546
0.000849957
0.000844287
0.00083907
0.000834241
0.000829749
0.000825553
0.000821619
0.000817919
0.000814427
0.000811124
0.000807993
0.000805017
0.000802184
0.000799483
0.000796903
0.000794435
0.000792072
0.000789807
0.000787633
0.000785545
0.000783538
0.000781607
0.000779749
0.00077796
0.000776236
0.000774575
0.000772975
0.000771432
0.000769945
0.000768513
0.000767133
0.000765805
0.000764526
0.000763297
0.000762116
0.000760982
0.000759895
0.000758855
0.000757861
0.000756914
0.000756013
0.000755159
0.000754351
0.000753592
0.00075288
0.000752218
0.000751606
0.000751045
0.000750537
0.000750083
0.000749684
0.000749342
0.000749061
0.00074884
0.000748686
0.000748592
0.000748577
0.000748621
0.000748759
0.000748951
0.000749257
0.000749609
0.000750101
0.000750627
0.000751326
0.000752039
0.000752974
0.000753879
0.000755089
0.000756192
0.000757711
0.000759036
0.000760875
0.000762475
0.00076463
0.00076655
0.000769062
0.000771291
0.000774232
0.00077675
0.000780339
0.000784055
0.000789073
0.000792673
0.00079819
0.000800846
0.00080338
0.000808182
0.000811456
0.00081692
0.000821351
0.00082826
0.000834145
0.000840529
0.000846786
0.000853446
0.000860108
0.000867116
0.000874233
0.000881585
0.000849956
0.000844288
0.00083907
0.000834241
0.00082975
0.000825554
0.000821619
0.000817918
0.000814425
0.000811121
0.000807987
0.00080501
0.000802175
0.000799471
0.000796889
0.000794418
0.000792053
0.000789784
0.000787607
0.000785516
0.000783505
0.000781571
0.000779709
0.000777916
0.000776189
0.000774525
0.00077292
0.000771374
0.000769884
0.000768447
0.000767064
0.000765732
0.000764449
0.000763216
0.000762031
0.000760893
0.000759802
0.000758759
0.000757761
0.00075681
0.000755905
0.000755047
0.000754236
0.000753474
0.000752759
0.000752094
0.000751479
0.000750916
0.000750404
0.00074995
0.000749548
0.000749208
0.000748923
0.000748707
0.000748547
0.000748465
0.000748441
0.000748504
0.000748628
0.00074885
0.000749137
0.000749533
0.000749997
0.000750585
0.000751247
0.000752043
0.000752928
0.000753947
0.000755091
0.000756337
0.000757788
0.000759269
0.000761065
0.000762809
0.000764975
0.000767009
0.000769615
0.000771884
0.000775099
0.000777449
0.000781838
0.000785959
0.000790245
0.000794237
0.000798101
0.000802178
0.000804978
0.000811026
0.000815052
0.000821494
0.000826577
0.000832957
0.00083892
0.000845608
0.000852349
0.000859487
0.000866893
0.000874488
0.000882507
0.000890464
0.000849957
0.000844288
0.000839071
0.000834242
0.000829751
0.000825554
0.000821619
0.000817917
0.000814423
0.000811118
0.000807983
0.000805004
0.000802167
0.000799461
0.000796877
0.000794404
0.000792035
0.000789764
0.000787584
0.00078549
0.000783476
0.000781539
0.000779673
0.000777877
0.000776146
0.000774478
0.00077287
0.00077132
0.000769826
0.000768386
0.000766999
0.000765663
0.000764377
0.000763139
0.00076195
0.000760809
0.000759714
0.000758666
0.000757665
0.00075671
0.000755801
0.00075494
0.000754125
0.000753359
0.000752641
0.000751973
0.000751355
0.000750789
0.000750276
0.000749818
0.000749416
0.000749074
0.000748789
0.000748573
0.000748414
0.000748335
0.000748311
0.000748383
0.000748505
0.000748745
0.000749023
0.000749453
0.000749897
0.000750544
0.000751166
0.000752058
0.000752872
0.00075404
0.000755067
0.000756538
0.000757807
0.000759605
0.000761152
0.000763308
0.000765167
0.000767705
0.000769951
0.000772826
0.00077565
0.000778524
0.0007835
0.000787658
0.000792069
0.000796342
0.000799416
0.000804278
0.000806871
0.000814067
0.000817414
0.000825405
0.000829779
0.00083753
0.000843608
0.000851231
0.000858573
0.000866457
0.000874643
0.000883031
0.000891882
0.000900754
0.000849957
0.000844289
0.000839072
0.000834243
0.000829752
0.000825555
0.00082162
0.000817917
0.000814422
0.000811116
0.00080798
0.000804999
0.000802161
0.000799453
0.000796866
0.000794391
0.00079202
0.000789746
0.000787563
0.000785466
0.00078345
0.000781509
0.000779641
0.000777841
0.000776107
0.000774435
0.000772824
0.00077127
0.000769773
0.000768329
0.000766938
0.000765598
0.000764308
0.000763067
0.000761874
0.000760728
0.000759629
0.000758577
0.000757572
0.000756613
0.000755701
0.000754835
0.000754017
0.000753247
0.000752526
0.000751854
0.000751234
0.000750664
0.00075015
0.000749688
0.000749287
0.000748939
0.00074866
0.000748435
0.000748288
0.000748196
0.000748193
0.000748247
0.0007484
0.000748616
0.000748939
0.000749338
0.000749842
0.000750452
0.000751148
0.000752004
0.000752902
0.000754043
0.000755156
0.000756622
0.000757972
0.000759803
0.000761415
0.000763656
0.00076556
0.000768246
0.000770511
0.000773632
0.000776375
0.000779672
0.000785133
0.000788615
0.000793552
0.000797235
0.000800619
0.000805615
0.000809474
0.000816905
0.000820466
0.000830109
0.000833096
0.000843406
0.00084851
0.000857924
0.000865315
0.000874281
0.000883218
0.000892532
0.000902354
0.000912362
0.000849957
0.000844289
0.000839073
0.000834244
0.000829753
0.000825556
0.00082162
0.000817917
0.000814422
0.000811114
0.000807977
0.000804995
0.000802155
0.000799446
0.000796857
0.00079438
0.000792006
0.00078973
0.000787545
0.000785445
0.000783425
0.000781482
0.00077961
0.000777808
0.00077607
0.000774395
0.00077278
0.000771223
0.000769722
0.000768275
0.00076688
0.000765536
0.000764242
0.000762997
0.0007618
0.00076065
0.000759548
0.000758492
0.000757482
0.000756519
0.000755603
0.000754733
0.000753912
0.000753138
0.000752413
0.000751738
0.000751114
0.000750542
0.000750024
0.000749561
0.000749157
0.000748809
0.000748528
0.000748303
0.000748157
0.000748065
0.000748069
0.000748118
0.00074829
0.000748491
0.000748853
0.000749221
0.000749794
0.000750348
0.000751151
0.000751923
0.000752972
0.000754002
0.000755308
0.000756647
0.000758223
0.000759929
0.000761783
0.000763932
0.000766065
0.000768732
0.000771191
0.000774402
0.000777067
0.000781885
0.000786261
0.000790035
0.000794772
0.000798969
0.000801678
0.000808401
0.00081174
0.000820789
0.000823429
0.000834907
0.000837135
0.000850517
0.000853291
0.000866279
0.000872284
0.000883615
0.000892792
0.000903489
0.000914408
0.000925681
0.000849957
0.00084429
0.000839074
0.000834245
0.000829754
0.000825557
0.000821621
0.000817917
0.000814421
0.000811113
0.000807975
0.000804992
0.00080215
0.000799439
0.000796848
0.000794369
0.000791994
0.000789716
0.000787528
0.000785425
0.000783403
0.000781457
0.000779582
0.000777776
0.000776036
0.000774357
0.000772739
0.000771179
0.000769674
0.000768223
0.000766825
0.000765477
0.000764179
0.00076293
0.000761729
0.000760575
0.000759468
0.000758409
0.000757395
0.000756428
0.000755507
0.000754634
0.000753807
0.000753031
0.000752301
0.000751624
0.000750994
0.000750422
0.000749897
0.000749437
0.000749023
0.000748683
0.00074839
0.000748179
0.000748016
0.000747946