/*--------------------------------*- C++ -*----------------------------------*\
| =========                 |                                                 |
| \\      /  F ield         | OpenFOAM: The Open Source CFD Toolbox           |
|  \\    /   O peration     | Version:  2406                                  |
|   \\  /    A nd           | Website:  www.openfoam.com                      |
|    \\/     M anipulation  |                                                 |
\*---------------------------------------------------------------------------*/
FoamFile
{
    version     2.0;
    format      ascii;
    arch        "LSB;label=32;scalar=64";
    class       volScalarField;
    location    "400";
    object      p;
}
// * * * * * * * * * * * * * * * * * * * * * * * * * * * * * * * * * * * * * //

dimensions      [0 2 -2 0 0 0 0];

internalField   nonuniform List<scalar> 
150000
(
235.537
128.397
71.4075
48.1198
34.7652
25.9523
20.1841
16.2101
13.2615
10.9533
9.07736
7.5073
6.16262
4.99006
3.95272
3.02402
2.18414
1.41796
0.713683
0.061924
-0.544879
-1.11291
-1.64726
-2.15221
-2.63134
-3.0877
-3.5239
-3.94216
-4.34445
-4.73244
-5.10762
-5.4713
-5.82461
-6.16859
-6.50414
-6.83208
-7.15314
-7.46797
-7.77718
-8.08129
-8.3808
-8.67616
-8.96777
-9.25602
-9.54125
-9.82377
-10.1039
-10.3819
-10.658
-10.9325
-11.2055
-11.4774
-11.7483
-12.0184
-12.2878
-12.5568
-12.8256
-13.0942
-13.3628
-13.6316
-13.9008
-14.1705
-14.4407
-14.7118
-14.9838
-15.2568
-15.5311
-15.8067
-16.0839
-16.3627
-16.6433
-16.926
-17.2109
-17.4981
-17.7879
-18.0804
-18.3759
-18.6747
-18.977
-19.283
-19.5931
-19.9075
-20.2268
-20.5512
-20.8811
-21.2172
-21.56
-21.91
-22.2679
-22.6346
-23.0109
-23.3978
-23.7968
-24.2101
-24.6426
-25.107
-25.6288
-26.2327
-26.9894
-28.8466
134.703
95.0765
65.4825
48.9016
37.4848
29.0366
22.9965
18.6076
15.2702
12.6368
10.4992
8.72092
7.20976
5.90276
4.75558
3.73605
2.82018
1.98974
1.23059
0.531566
-0.116278
-0.720195
-1.28614
-1.81906
-2.32309
-2.80173
-3.25794
-3.69427
-4.11292
-4.51579
-4.90455
-5.28065
-5.64537
-5.99985
-6.34509
-6.68199
-7.01135
-7.33391
-7.65031
-7.96114
-8.26693
-8.56817
-8.86531
-9.15875
-9.44887
-9.73601
-10.0205
-10.3026
-10.5826
-10.8608
-11.1375
-11.4127
-11.6868
-11.96
-12.2324
-12.5042
-12.7757
-13.0469
-13.318
-13.5893
-13.8609
-14.1328
-14.4053
-14.6786
-14.9527
-15.2279
-15.5042
-15.7818
-16.061
-16.3418
-16.6245
-16.9091
-17.196
-17.4852
-17.7771
-18.0717
-18.3694
-18.6704
-18.9749
-19.2833
-19.5959
-19.9131
-20.2352
-20.5626
-20.896
-21.2359
-21.5828
-21.9377
-22.3014
-22.6751
-23.0601
-23.4582
-23.872
-24.3054
-24.7645
-25.2605
-25.8109
-26.4418
-27.255
-28.6097
86.1778
74.9454
60.2969
48.1542
38.5413
30.9146
25.0384
20.5238
16.9813
14.1383
11.8111
9.86928
8.21986
6.79654
5.55131
4.44869
3.46196
2.57066
1.75887
1.014
0.325991
-0.313332
-0.910659
-1.47153
-2.00058
-2.5017
-2.9782
-3.43292
-3.86829
-4.28641
-4.68912
-5.07802
-5.45453
-5.81987
-6.17517
-6.52139
-6.85941
-7.19003
-7.51395
-7.8318
-8.14418
-8.45159
-8.75453
-9.05344
-9.3487
-9.64071
-9.92979
-10.2163
-10.5004
-10.7826
-11.0629
-11.3417
-11.6192
-11.8957
-12.1712
-12.446
-12.7203
-12.9943
-13.2681
-13.542
-13.816
-14.0904
-14.3653
-14.6408
-14.9172
-15.1945
-15.473
-15.7527
-16.034
-16.3169
-16.6016
-16.8883
-17.1772
-17.4685
-17.7624
-18.0591
-18.3589
-18.6621
-18.9689
-19.2796
-19.5946
-19.9143
-20.2391
-20.5695
-20.906
-21.2493
-21.6001
-21.9594
-22.3281
-22.7077
-23.0999
-23.507
-23.9319
-24.3791
-24.8545
-25.3665
-25.9252
-26.5408
-27.2328
-28.0295
65.5438
61.8991
53.6762
44.9091
37.3283
30.9581
25.7076
21.4431
17.9698
15.1104
12.7275
10.7155
8.99405
7.50226
6.19431
5.03527
3.9982
3.06213
2.21052
1.4302
0.710537
0.0428781
-0.579899
-1.1637
-1.71348
-2.2334
-2.727
-3.19732
-3.64696
-4.07818
-4.49293
-4.89294
-5.2797
-5.65455
-6.01866
-6.37309
-6.71876
-7.05652
-7.38711
-7.71122
-8.02946
-8.3424
-8.65053
-8.95433
-9.25422
-9.5506
-9.84382
-10.1342
-10.4221
-10.7078
-10.9915
-11.2735
-11.5541
-11.8335
-12.1118
-12.3893
-12.6662
-12.9427
-13.2189
-13.4951
-13.7713
-14.0478
-14.3248
-14.6024
-14.8807
-15.1599
-15.4403
-15.7219
-16.0049
-16.2896
-16.576
-16.8644
-17.155
-17.448
-17.7435
-18.0419
-18.3434
-18.6483
-18.9568
-19.2693
-19.5861
-19.9076
-20.2343
-20.5666
-20.9051
-21.2506
-21.6036
-21.9653
-22.3366
-22.7189
-23.1138
-23.5235
-23.9504
-24.3976
-24.8685
-25.3664
-25.892
-26.439
-26.9878
-27.4942
52.8914
51.5619
46.8996
40.941
35.2465
30.1214
25.6234
21.7721
18.5098
15.7448
13.3895
11.3688
9.62014
8.09286
6.74663
5.54948
4.476
3.50589
2.62286
1.81373
1.06774
0.376064
-0.268627
-0.872438
-1.4405
-1.97717
-2.48614
-2.97058
-3.43322
-3.87643
-4.30228
-4.71255
-5.10885
-5.49256
-5.86493
-6.22706
-6.57993
-6.92442
-7.26133
-7.59137
-7.91519
-8.23337
-8.54645
-8.85492
-9.15923
-9.45978
-9.75696
-10.0511
-10.3426
-10.6316
-10.9186
-11.2037
-11.4872
-11.7693
-12.0504
-12.3304
-12.6098
-12.8886
-13.1671
-13.4454
-13.7238
-14.0023
-14.2812
-14.5606
-14.8408
-15.1218
-15.4038
-15.687
-15.9717
-16.2579
-16.5458
-16.8357
-17.1277
-17.4221
-17.719
-18.0187
-18.3215
-18.6277
-18.9374
-19.2511
-19.569
-19.8917
-20.2194
-20.5527
-20.8922
-21.2384
-21.5921
-21.9541
-22.3254
-22.707
-23.1004
-23.5068
-23.9277
-24.3644
-24.8172
-25.2847
-25.7606
-26.2305
-26.6657
-27.018
44.1927
43.7439
41.0756
37.0824
32.8673
28.8118
25.0528
21.6777
18.7059
16.1093
13.8437
11.8635
10.1254
8.59121
7.22822
6.00921
4.91163
3.91689
3.00968
2.17737
1.40948
0.697272
0.0334553
-0.588122
-1.17266
-1.7246
-2.24771
-2.74527
-3.22008
-3.6746
-4.11095
-4.53102
-4.93644
-5.32867
-5.709
-6.07858
-6.43843
-6.78947
-7.13254
-7.46837
-7.79764
-8.12096
-8.4389
-8.75195
-9.0606
-9.36526
-9.66634
-9.96419
-10.2592
-10.5516
-10.8417
-11.1298
-11.4162
-11.7011
-11.9847
-12.2673
-12.549
-12.8301
-13.1108
-13.3912
-13.6715
-13.952
-14.2327
-14.5139
-14.7957
-15.0783
-15.3619
-15.6467
-15.9327
-16.2203
-16.5095
-16.8006
-17.0938
-17.3893
-17.6873
-17.988
-18.2917
-18.5986
-18.9091
-19.2234
-19.5419
-19.8649
-20.1928
-20.5261
-20.8653
-21.2109
-21.5635
-21.9237
-22.2924
-22.6702
-23.0578
-23.456
-23.8648
-24.2839
-24.7111
-25.1416
-25.5659
-25.9671
-26.3182
-26.5804
38.0091
37.8809
36.2654
33.5335
30.409
27.2266
24.1365
21.2435
18.6025
16.2245
14.0977
12.2008
10.5086
8.99559
7.63788
6.41409
5.3056
4.29642
3.37292
2.52355
1.73853
1.00954
0.329551
-0.307458
-0.906619
-1.47234
-2.00842
-2.51814
-3.00436
-3.46956
-3.91593
-4.34538
-4.7596
-5.16009
-5.54817
-5.92504
-6.29174
-6.64923
-6.99837
-7.33993
-7.67461
-8.00304
-8.3258
-8.64342
-8.95639
-9.26515
-9.5701
-9.87164
-10.1701
-10.4658
-10.7591
-11.0502
-11.3395
-11.6271
-11.9133
-12.1983
-12.4824
-12.7657
-13.0485
-13.331
-13.6132
-13.8955
-14.178
-14.4609
-14.7442
-15.0283
-15.3133
-15.5994
-15.8867
-16.1754
-16.4657
-16.7578
-17.0519
-17.3482
-17.6469
-17.9482
-18.2523
-18.5596
-18.8703
-19.1846
-19.5029
-19.8255
-20.1527
-20.4849
-20.8225
-21.166
-21.5157
-21.8722
-22.2357
-22.6068
-22.9854
-23.3713
-23.7639
-24.161
-24.5591
-24.9517
-25.3282
-25.6726
-25.9624
-26.1697
33.3624
33.3332
32.2848
30.3618
28.0253
25.5302
23.0096
20.5633
18.2569
16.1212
14.1646
12.3835
10.7671
9.30111
7.9702
6.75917
5.65387
4.64147
3.71057
2.85118
2.05458
1.31321
0.620517
-0.0291715
-0.640771
-1.21855
-1.76622
-2.28702
-2.78378
-3.259
-3.71485
-4.15327
-4.57597
-4.98447
-5.38012
-5.76414
-6.1376
-6.50147
-6.85665
-7.20392
-7.544
-7.87754
-8.20515
-8.52736
-8.84468
-9.15756
-9.46643
-9.77168
-10.0737
-10.3727
-10.6692
-10.9633
-11.2554
-11.5458
-11.8346
-12.1221
-12.4085
-12.694
-12.9789
-13.2633
-13.5475
-13.8315
-14.1157
-14.4001
-14.6849
-14.9704
-15.2566
-15.5438
-15.8322
-16.1218
-16.413
-16.7058
-17.0006
-17.2973
-17.5964
-17.8979
-18.2021
-18.5092
-18.8195
-19.1332
-19.4506
-19.7719
-20.0974
-20.4275
-20.7624
-21.1023
-21.4476
-21.7984
-22.1547
-22.5166
-22.8836
-23.2547
-23.6284
-24.0018
-24.3703
-24.727
-25.0617
-25.3606
-25.6061
-25.7789
29.6979
29.6941
28.9709
27.5762
25.8035
23.8356
21.7806
19.7248
17.7318
15.8393
14.0667
12.4211
10.9021
9.50423
8.21918
7.03753
5.94953
4.94569
4.01711
3.15564
2.35393
1.6054
0.90424
0.245286
-0.376
-0.963622
-1.5211
-2.05156
-2.55773
-3.04205
-3.50666
-3.95349
-4.38423
-4.8004
-5.20337
-5.59434
-5.97442
-6.34459
-6.70575
-7.0587
-7.40417
-7.74284
-8.07532
-8.40215
-8.72386
-9.04092
-9.35375
-9.66276
-9.96832
-10.2708
-10.5705
-10.8677
-11.1627
-11.4557
-11.7471
-12.0371
-12.3258
-12.6136
-12.9005
-13.1869
-13.4729
-13.7586
-14.0444
-14.3303
-14.6165
-14.9032
-15.1906
-15.4788
-15.768
-16.0584
-16.3502
-16.6435
-16.9386
-17.2355
-17.5346
-17.8359
-18.1397
-18.4461
-18.7555
-19.0679
-19.3837
-19.703
-20.026
-20.3528
-20.6838
-21.019
-21.3584
-21.702
-22.0495
-22.4005
-22.7541
-23.109
-23.4627
-23.8122
-24.1524
-24.4768
-24.7761
-25.039
-25.2524
-25.403
26.7107
26.711
26.1862
25.1439
23.7748
22.2073
20.5249
18.7989
17.0852
15.4219
13.8327
12.3306
10.9216
9.60624
8.38187
7.2437
6.18581
5.20185
4.2854
3.43022
2.63047
1.88073
1.17605
0.511937
-0.115634
-0.710289
-1.27527
-1.81348
-2.3275
-2.81965
-3.29199
-3.74639
-4.18449
-4.60779
-5.01764
-5.41524
-5.80168
-6.17795
-6.54494
-6.90346
-7.25427
-7.59802
-7.93535
-8.26681
-8.59292
-8.91417
-9.23099
-9.5438
-9.85298
-10.1589
-10.4618
-10.7621
-11.06
-11.3559
-11.6499
-11.9423
-12.2334
-12.5234
-12.8124
-13.1007
-13.3884
-13.6758
-13.9631
-14.2504
-14.5379
-14.8257
-15.1141
-15.4032
-15.6931
-15.9841
-16.2763
-16.5699
-16.865
-17.1618
-17.4604
-17.7612
-18.0641
-18.3694
-18.6773
-18.9879
-19.3014
-19.6179
-19.9375
-20.2603
-20.5864
-20.9157
-21.2481
-21.5833
-21.9209
-22.2599
-22.5992
-22.9372
-23.2711
-23.5976
-23.912
-24.2079
-24.4779
-24.7127
-24.9025
-25.0384
24.2165
24.2155
23.8187
23.0179
21.9408
20.6774
19.2908
17.8377
16.3657
14.9097
13.4939
12.134
10.8393
9.61448
8.46056
7.37628
6.35885
5.40456
4.5092
3.66836
2.87768
2.13291
1.43005
0.765384
0.135448
-0.46291
-1.03257
-1.57615
-2.09601
-2.59431
-3.07297
-3.53375
-3.97823
-4.40785
-4.82391
-5.22758
-5.61993
-6.00192
-6.37445
-6.73832
-7.09427
-7.44297
-7.78504
-8.12104
-8.45151
-8.77691
-9.09771
-9.41431
-9.72709
-10.0364
-10.3426
-10.646
-10.9469
-11.2455
-11.5422
-11.8371
-12.1305
-12.4226
-12.7136
-13.0038
-13.2933
-13.5824
-13.8711
-14.1597
-14.4484
-14.7372
-15.0265
-15.3163
-15.6068
-15.8981
-16.1905
-16.4841
-16.7789
-17.0753
-17.3733
-17.6731
-17.9748
-18.2785
-18.5844
-18.8926
-19.2032
-19.5163
-19.8318
-20.1498
-20.4703
-20.7929
-21.1175
-21.4435
-21.7702
-22.0967
-22.4215
-22.7426
-23.0576
-23.3628
-23.6539
-23.9256
-24.1714
-24.3841
-24.5566
-24.6825
22.0954
22.0925
21.7825
21.152
20.2897
19.2588
18.1065
16.8775
15.6109
14.3375
13.0802
11.855
10.673
9.54092
8.46236
7.43849
6.46882
5.55173
4.68485
3.86536
3.09022
2.35632
1.66059
1.00007
0.371914
-0.226515
-0.797687
-1.34389
-1.86722
-2.3696
-2.85282
-3.31847
-3.76804
-4.20288
-4.6242
-5.03314
-5.43071
-5.81786
-6.19545
-6.56426
-6.92501
-7.27837
-7.62495
-7.96531
-8.29997
-8.6294
-8.95407
-9.27437
-9.59069
-9.9034
-10.2128
-10.5193
-10.8231
-11.1244
-11.4237
-11.721
-12.0167
-12.311
-12.604
-12.8961
-13.1873
-13.4778
-13.768
-14.0578
-14.3475
-14.6373
-14.9273
-15.2176
-15.5085
-15.8
-16.0924
-16.3857
-16.6801
-16.9758
-17.2728
-17.5712
-17.8713
-18.173
-18.4765
-18.7819
-19.0891
-19.3982
-19.709
-20.0217
-20.3358
-20.6512
-20.9673
-21.2837
-21.5994
-21.9132
-22.2236
-22.5287
-22.8258
-23.1117
-23.3825
-23.6335
-23.8595
-24.055
-24.2145
-24.3337
20.2655
20.2614
20.013
19.5061
18.8042
17.9528
16.9868
15.9411
14.8476
13.7327
12.6169
11.5159
10.4409
9.39978
8.3976
7.43714
6.51953
5.64471
4.81175
4.01912
3.26492
2.54704
1.86325
1.21129
0.588962
-0.00588792
-0.575299
-1.1212
-1.64541
-2.1496
-2.63535
-3.1041
-3.5572
-3.99588
-4.42128
-4.83445
-5.23636
-5.62788
-6.00985
-6.38301
-6.74806
-7.10564
-7.45635
-7.80074
-8.13931
-8.47254
-8.80086
-9.12469
-9.4444
-9.76035
-10.0729
-10.3823
-10.6889
-10.9929
-11.2947
-11.5944
-11.8923
-12.1887
-12.4836
-12.7774
-13.0702
-13.3622
-13.6536
-13.9446
-14.2353
-14.5258
-14.8164
-15.1072
-15.3983
-15.6898
-15.9819
-16.2748
-16.5685
-16.8631
-17.1588
-17.4557
-17.7538
-18.0532
-18.3539
-18.6559
-18.9593
-19.264
-19.5698
-19.8766
-20.184
-20.4918
-20.7992
-21.1057
-21.4103
-21.7117
-22.0084
-22.2983
-22.5791
-22.8477
-23.1009
-23.3345
-23.5444
-23.7263
-23.8762
-23.9908
18.6689
18.664
18.461
18.0459
17.4663
16.755
15.9379
15.0424
14.0942
13.1157
12.1247
11.1358
10.16
9.20545
8.27789
7.3811
6.51732
5.68758
4.89203
4.13016
3.40099
2.70323
2.03539
1.39586
0.782989
0.195109
-0.369409
-0.912144
-1.43461
-1.93824
-2.42438
-2.89431
-3.34922
-3.79021
-4.21832
-4.63451
-5.03965
-5.43459
-5.82008
-6.19683
-6.56552
-6.92673
-7.28105
-7.62901
-7.97109
-8.30774
-8.63941
-8.96648
-9.28933
-9.60831
-9.92374
-10.2359
-10.5452
-10.8517
-11.1559
-11.4578
-11.7578
-12.0561
-12.3529
-12.6483
-12.9426
-13.236
-13.5285
-13.8205
-14.112
-14.4032
-14.6942
-14.9852
-15.2763
-15.5677
-15.8594
-16.1516
-16.4443
-16.7377
-17.0319
-17.3268
-17.6227
-17.9194
-18.217
-18.5155
-18.8147
-19.1146
-19.415
-19.7157
-20.0162
-20.3161
-20.6148
-20.9116
-21.2053
-21.4948
-21.7784
-22.0544
-22.3204
-22.5739
-22.8118
-23.0309
-23.2277
-23.399
-23.5416
-23.6533
17.2626
17.2575
17.0887
16.7437
16.2586
15.6578
14.9608
14.1887
13.3626
12.5008
11.6191
10.7304
9.84509
8.97118
8.11469
7.27993
6.4698
5.68611
4.92977
4.20104
3.49967
2.82503
2.17624
1.55224
0.951875
0.373903
-0.182926
-0.719859
-1.23812
-1.7389
-2.22333
-2.69251
-3.14746
-3.58914
-4.01849
-4.43635
-4.84354
-5.24079
-5.62883
-6.00829
-6.37981
-6.74394
-7.10123
-7.45217
-7.79723
-8.13685
-8.47143
-8.80137
-9.12701
-9.4487
-9.76675
-10.0815
-10.3931
-10.702
-11.0083
-11.3123
-11.6142
-11.9143
-12.2127
-12.5096
-12.8052
-13.0998
-13.3933
-13.6861
-13.9783
-14.2699
-14.5612
-14.8523
-15.1433
-15.4343
-15.7253
-16.0166
-16.3082
-16.6002
-16.8926
-17.1854
-17.4787
-17.7725
-18.0668
-18.3614
-18.6562
-18.9512
-19.246
-19.5404
-19.8339
-20.126
-20.4161
-20.7033
-20.9866
-21.2648
-21.5364
-21.7997
-22.0525
-22.2927
-22.5176
-22.7245
-22.9107
-23.0736
-23.2108
-23.3208
16.0143
16.0093
15.8671
15.5764
15.1656
14.653
14.0534
13.3834
12.6598
11.8981
11.1116
10.3118
9.50816
8.7084
7.91845
7.14285
6.38488
5.64683
4.93017
4.2357
3.56373
2.91415
2.28659
1.68044
1.09495
0.529265
-0.017534
-0.546395
-1.05828
-1.55414
-2.03491
-2.50149
-2.95476
-3.39556
-3.82467
-4.24285
-4.65082
-5.04925
-5.43877
-5.81998
-6.19344
-6.55968
-6.9192
-7.27245
-7.61988
-7.9619
-8.2989
-8.63122
-8.95923
-9.28324
-9.60354
-9.92044
-10.2342
-10.5451
-10.8533
-11.1591
-11.4627
-11.7643
-12.0642
-12.3624
-12.6592
-12.9547
-13.2491
-13.5425
-13.8351
-14.1271
-14.4185
-14.7094
-15.0001
-15.2905
-15.5808
-15.871
-16.1612
-16.4515
-16.7419
-17.0324
-17.323
-17.6137
-17.9044
-18.1949
-18.4853
-18.7751
-19.0643
-19.3523
-19.6388
-19.9233
-20.205
-20.483
-20.7565
-21.0243
-21.2848
-21.5366
-21.7778
-22.0064
-22.2202
-22.417
-22.5946
-22.7509
-22.8842
-22.9932
14.899
14.8943
14.773
14.5252
14.1736
13.7323
13.2124
12.6272
11.9901
11.314
10.6103
9.88906
9.15877
8.42657
7.6982
6.9782
6.27004
5.57629
4.89878
4.23872
3.59681
2.97337
2.36839
1.78166
1.21276
0.661161
0.126231
-0.392715
-0.896401
-1.38557
-1.86096
-2.32331
-2.77334
-3.21176
-3.63924
-4.05643
-4.46396
-4.86241
-5.25235
-5.63432
-6.00881
-6.3763
-6.73726
-7.0921
-7.44123
-7.78502
-8.12385
-8.45804
-8.78792
-9.11379
-9.43593
-9.75462
-10.0701
-10.3827
-10.6925
-10.9998
-11.3048
-11.6077
-11.9087
-12.208
-12.5057
-12.802
-13.097
-13.3909
-13.6838
-13.9758
-14.2671
-14.5577
-14.8479
-15.1375
-15.4268
-15.7157
-16.0044
-16.2928
-16.5811
-16.8691
-17.1568
-17.4442
-17.7312
-18.0176
-18.3033
-18.588
-18.8715
-19.1533
-19.433
-19.71
-19.9836
-20.2531
-20.5174
-20.7754
-21.0259
-21.2674
-21.4984
-21.717
-21.9214
-22.1098
-22.2804
-22.4316
-22.5619
-22.6706
13.897
13.8926
13.7881
13.5747
13.2708
12.8877
12.4336
11.9192
11.3554
10.7528
10.1211
9.46911
8.80434
8.13333
7.46149
6.79322
6.13203
5.48064
4.8411
4.21487
3.60297
3.00601
2.42431
1.85792
1.30674
0.770485
0.248776
-0.258845
-0.752894
-1.23392
-1.7025
-2.15922
-2.60466
-3.03939
-3.46398
-3.87898
-4.28492
-4.68231
-5.07165
-5.4534
-5.82801
-6.19591
-6.55751
-6.91319
-7.26332
-7.60824
-7.94828
-8.28377
-8.61499
-8.94222
-9.26574
-9.5858
-9.90263
-10.2165
-10.5275
-10.836
-11.1421
-11.446
-11.7479
-12.0479
-12.3463
-12.6431
-12.9385
-13.2326
-13.5255
-13.8174
-14.1084
-14.3986
-14.6879
-14.9766
-15.2647
-15.5522
-15.8392
-16.1256
-16.4115
-16.6968
-16.9815
-17.2656
-17.5488
-17.831
-18.1121
-18.3917
-18.6695
-18.9452
-19.2183
-19.4882
-19.7542
-20.0155
-20.2713
-20.5205
-20.762
-20.9944
-21.2163
-21.4262
-21.6227
-21.8041
-21.9691
-22.1162
-22.2446
-22.3534
12.9925
12.9884
12.8976
12.712
12.4472
12.1119
11.7126
11.2577
10.7562
10.2168
9.64787
9.05684
8.45049
7.8347
7.21446
6.59399
5.97671
5.36539
4.76218
4.16874
3.58627
3.01562
2.45734
1.91173
1.37889
0.85877
0.3512
-0.144088
-0.627429
-1.09921
-1.55985
-2.00979
-2.4495
-2.87943
-3.30004
-3.71179
-4.11512
-4.51048
-4.89827
-5.27891
-5.65279
-6.02029
-6.38176
-6.73754
-7.08798
-7.43337
-7.77403
-8.11023
-8.44225
-8.77034
-9.09474
-9.4157
-9.73344
-10.0482
-10.3601
-10.6694
-10.9762
-11.2808
-11.5833
-11.8838
-12.1825
-12.4795
-12.775
-13.0691
-13.3619
-13.6535
-13.9439
-14.2333
-14.5218
-14.8094
-15.0961
-15.3819
-15.667
-15.9513
-16.2347
-16.5173
-16.7989
-17.0794
-17.3588
-17.6368
-17.9133
-18.1878
-18.4602
-18.73
-18.9967
-19.2598
-19.5187
-19.7725
-20.0205
-20.2616
-20.4949
-20.7192
-20.9333
-21.1358
-21.3255
-21.5012
-21.6615
-21.8056
-21.9325
-22.0419
12.1727
12.1689
12.0893
11.9267
11.6941
11.3985
11.0451
10.6405
10.1921
9.70734
9.19305
8.65578
8.10146
7.53536
6.96208
6.38554
5.80905
5.23533
4.66658
4.10455
3.55059
3.00569
2.47059
1.94576
1.4315
0.92793
0.435048
-0.0472449
-0.519132
-0.980855
-1.4327
-1.87499
-2.30807
-2.73229
-3.14802
-3.55563
-3.95548
-4.34794
-4.73336
-5.11209
-5.48447
-5.85081
-6.21144
-6.56665
-6.91674
-7.26199
-7.60266
-7.93902
-8.27129
-8.59973
-8.92454
-9.24595
-9.56415
-9.87935
-10.1917
-10.5014
-10.8087
-11.1136
-11.4163
-11.717
-12.0158
-12.3128
-12.6082
-12.902
-13.1944
-13.4854
-13.7751
-14.0636
-14.3509
-14.6371
-14.9223
-15.2064
-15.4894
-15.7714
-16.0523
-16.332
-16.6104
-16.8875
-17.163
-17.4368
-17.7087
-17.9784
-18.2454
-18.5095
-18.7702
-19.027
-19.2791
-19.526
-19.7668
-20.0007
-20.2267
-20.4438
-20.651
-20.8471
-21.0312
-21.202
-21.3586
-21.5003
-21.6264
-21.7364
11.4271
11.4236
11.3533
11.2097
11.0039
10.7416
10.4269
10.0651
9.66233
9.22474
8.75822
8.26836
7.76036
7.23894
6.70826
6.17197
5.63319
5.09456
4.55826
4.02609
3.49946
2.97949
2.46704
1.96272
1.46697
0.980052
0.502112
0.0331855
-0.426779
-0.8779
-1.32035
-1.75433
-2.1801
-2.59791
-3.00805
-3.41079
-3.80645
-4.1953
-4.57764
-4.95376
-5.32395
-5.68848
-6.04763
-6.40165
-6.75081
-7.09534
-7.43547
-7.77145
-8.10348
-8.43177
-8.75653
-9.07794
-9.39619
-9.71145
-10.0239
-10.3337
-10.641
-10.9459
-11.2485
-11.5491
-11.8477
-12.1444
-12.4394
-12.7327
-13.0244
-13.3145
-13.6033
-13.8907
-14.1767
-14.4614
-14.7449
-15.0271
-15.308
-15.5875
-15.8657
-16.1425
-16.4177
-16.6913
-16.963
-17.2327
-17.5001
-17.765
-18.0269
-18.2856
-18.5406
-18.7913
-19.0373
-19.2777
-19.512
-19.7393
-19.9588
-20.1696
-20.3709
-20.5615
-20.7407
-20.9075
-21.0612
-21.201
-21.3266
-21.4375
10.747
10.7438
10.6813
10.5536
10.3703
10.1361
9.8542
9.52898
9.16551
8.76891
8.3442
7.8962
7.42946
6.94817
6.45609
5.95657
5.45254
4.94652
4.44062
3.93665
3.43605
2.94002
2.44949
1.96518
1.48764
1.01725
0.554274
0.098854
-0.348947
-0.789141
-1.2218
-1.64703
-2.065
-2.47588
-2.87987
-3.27719
-3.66807
-4.05273
-4.43141
-4.80435
-5.17179
-5.53395
-5.89106
-6.24336
-6.59104
-6.93434
-7.27345
-7.60856
-7.93988
-8.26759
-8.59186
-8.91286
-9.23075
-9.54571
-9.85786
-10.1674
-10.4743
-10.7789
-11.0812
-11.3814
-11.6795
-11.9756
-12.2699
-12.5624
-12.8532
-13.1424
-13.43
-13.7161
-14.0006
-14.2837
-14.5653
-14.8454
-15.124
-15.4011
-15.6766
-15.9504
-16.2224
-16.4924
-16.7604
-17.026
-17.2891
-17.5493
-17.8064
-18.06
-18.3096
-18.5547
-18.7948
-19.0294
-19.2578
-19.4792
-19.6929
-19.8981
-20.0941
-20.28
-20.4551
-20.6186
-20.7698
-20.9083
-21.0336
-21.1455
10.1251
10.1221
10.0662
9.95192
9.78766
9.57735
9.3235
9.02972
8.70023
8.33934
7.95132
7.54034
7.11037
6.66512
6.20798
5.74201
5.26992
4.79408
4.31656
3.83909
3.36314
2.88993
2.42046
1.95552
1.49573
1.04158
0.5934
0.151447
-0.28413
-0.713251
-1.1359
-1.55211
-1.96195
-2.36554
-2.76299
-3.15446
-3.54012
-3.92014
-4.2947
-4.664
-5.02821
-5.38753
-5.74215
-6.09225
-6.43802
-6.77964
-7.11729
-7.45112
-7.78132
-8.10804
-8.43143
-8.75164
-9.06882
-9.38311
-9.69463
-10.0035
-10.3099
-10.6138
-10.9155
-11.215
-11.5123
-11.8076
-12.101
-12.3925
-12.6823
-12.9702
-13.2565
-13.541
-13.8239
-14.1052
-14.3848
-14.6628
-14.9391
-15.2136
-15.4863
-15.757
-16.0258
-16.2924
-16.5566
-16.8183
-17.0771
-17.3329
-17.5854
-17.8341
-18.0786
-18.3185
-18.5533
-18.7825
-19.0055
-19.2215
-19.4301
-19.6304
-19.8218
-20.0036
-20.1752
-20.3359
-20.4852
-20.6227
-20.7479
-20.8609
9.55519
9.55251
9.50216
9.39929
9.25126
9.06135
8.8316
8.56496
8.26497
7.93529
7.57955
7.20136
6.80418
6.39131
5.96578
5.53037
5.08758
4.63964
4.1885
3.73585
3.28314
2.83159
2.38224
1.93591
1.4933
1.05495
0.621278
0.192612
-0.230822
-0.648867
-1.06143
-1.46848
-1.87001
-2.26607
-2.65671
-3.04204
-3.42217
-3.79721
-4.1673
-4.53258
-4.89319
-5.2493
-5.60105
-5.94858
-6.29206
-6.63163
-6.96744
-7.29964
-7.62836
-7.95374
-8.27591
-8.59501
-8.91115
-9.22446
-9.53505
-9.84302
-10.1485
-10.4516
-10.7523
-11.0508
-11.3472
-11.6414
-11.9337
-12.224
-12.5125
-12.799
-13.0837
-13.3667
-13.6478
-13.9271
-14.2047
-14.4804
-14.7542
-15.0261
-15.296
-15.5637
-15.8293
-16.0924
-16.353
-16.6108
-16.8656
-17.1172
-17.3652
-17.6093
-17.8491
-18.0842
-18.3141
-18.5383
-18.7563
-18.9676
-19.1715
-19.3675
-19.5549
-19.7332
-19.9018
-20.0601
-20.2078
-20.3445
-20.4699
-20.5839
9.03218
9.02971
8.98413
8.89103
8.7569
8.58455
8.37559
8.13248
7.85822
7.55589
7.22862
6.87952
6.51163
6.12785
5.73091
5.32332
4.90738
4.48516
4.0585
3.62902
3.19814
2.76706
2.33681
1.90828
1.48219
1.05913
0.639573
0.223909
-0.187571
-0.594649
-0.997168
-1.39503
-1.78817
-2.17657
-2.56026
-2.93925
-3.31362
-3.68344
-4.0488
-4.4098
-4.76654
-5.11914
-5.46771
-5.81238
-6.15326
-6.49048
-6.82415
-7.1544
-7.48134
-7.80509
-8.12575
-8.44345
-8.75827
-9.07033
-9.37972
-9.68654
-9.99086
-10.2928
-10.5924
-10.8897
-11.1849
-11.4779
-11.7689
-12.0578
-12.3447
-12.6297
-12.9128
-13.1939
-13.4732
-13.7505
-14.0258
-14.2992
-14.5705
-14.8398
-15.1068
-15.3716
-15.6339
-15.8937
-16.1507
-16.4048
-16.6558
-16.9033
-17.1471
-17.3868
-17.6222
-17.8528
-18.0781
-18.2978
-18.5114
-18.7183
-18.9181
-19.1102
-19.2941
-19.4693
-19.6353
-19.7917
-19.9381
-20.0742
-20.1999
-20.3149
8.55155
8.54927
8.50781
8.42311
8.30096
8.14378
7.95285
7.73024
7.47849
7.20021
6.8981
6.57486
6.23315
5.87553
5.50444
5.12216
4.73079
4.33225
3.92826
3.52036
3.10991
2.6981
2.28596
1.87437
1.46408
1.05572
0.649814
0.246789
-0.153012
-0.549316
-0.941915
-1.33065
-1.71542
-2.09614
-2.47279
-2.84535
-3.21383
-3.57828
-3.93873
-4.29525
-4.6479
-4.99677
-5.34195
-5.68351
-6.02156
-6.35618
-6.68747
-7.01553
-7.34045
-7.66232
-7.98124
-8.29729
-8.61056
-8.92114
-9.2291
-9.53453
-9.8375
-10.1381
-10.4363
-10.7323
-11.0261
-11.3177
-11.6071
-11.8945
-12.1799
-12.4632
-12.7444
-13.0237
-13.3009
-13.5761
-13.8492
-14.1202
-14.389
-14.6556
-14.9198
-15.1816
-15.4408
-15.6973
-15.9509
-16.2014
-16.4486
-16.6922
-16.932
-17.1677
-17.3989
-17.6253
-17.8464
-18.062
-18.2715
-18.4745
-18.6706
-18.8592
-19.04
-19.2125
-19.3763
-19.531
-19.6764
-19.8121
-19.938
-20.054
8.10947
8.10735
8.06945
7.99202
7.88026
7.73625
7.56103
7.35634
7.12434
6.86727
6.58745
6.28723
5.96895
5.63487
5.28717
4.92792
4.55901
4.18224
3.7992
3.41134
3.01998
2.62627
2.2312
1.83567
1.44045
1.04617
0.653391
0.262581
-0.125879
-0.511672
-0.894544
-1.2743
-1.65077
-2.02386
-2.39347
-2.75956
-3.1221
-3.48108
-3.83652
-4.18843
-4.53686
-4.88185
-5.22346
-5.56175
-5.89678
-6.22862
-6.55734
-6.88301
-7.20571
-7.52551
-7.84248
-8.15669
-8.46822
-8.77713
-9.08348
-9.38734
-9.68878
-9.98783
-10.2846
-10.579
-10.8712
-11.1613
-11.4491
-11.7348
-12.0184
-12.2999
-12.5793
-12.8566
-13.1317
-13.4047
-13.6755
-13.9441
-14.2104
-14.4742
-14.7357
-14.9945
-15.2506
-15.5039
-15.7541
-16.0012
-16.2448
-16.4848
-16.7208
-16.9526
-17.18
-17.4025
-17.6198
-17.8315
-18.0373
-18.2368
-18.4295
-18.6151
-18.7931
-18.9632
-19.1251
-19.2783
-19.4228
-19.5582
-19.6844
-19.8014
7.70262
7.70066
7.66585
7.59473
7.492
7.35948
7.19801
7.00904
6.79442
6.5561
6.29608
6.01639
5.7191
5.40621
5.07967
4.74135
4.39298
4.03619
3.67249
3.30323
2.92966
2.55288
2.17388
1.79354
1.41261
1.03175
0.651552
0.272492
-0.105011
-0.480607
-0.854004
-1.22496
-1.59329
-1.95884
-2.32148
-2.68113
-3.03772
-3.39121
-3.74158
-4.08883
-4.43294
-4.77396
-5.11189
-5.44677
-5.77865
-6.10757
-6.43357
-6.75671
-7.07704
-7.39462
-7.70949
-8.02171
-8.33134
-8.63842
-8.94301
-9.24516
-9.54491
-9.8423
-10.1374
-10.4302
-10.7207
-11.0091
-11.2952
-11.5791
-11.8609
-12.1405
-12.4179
-12.6931
-12.9661
-13.2369
-13.5054
-13.7715
-14.0352
-14.2964
-14.5551
-14.811
-15.0641
-15.3143
-15.5613
-15.805
-16.0452
-16.2817
-16.5141
-16.7424
-16.9661
-17.185
-17.3987
-17.6069
-17.8093
-18.0056
-18.1953
-18.3781
-18.5536
-18.7216
-18.8818
-19.0338
-19.1775
-19.3127
-19.4393
-19.5571
7.32813
7.3263
7.29419
7.22858
7.13375
7.01128
6.86186
6.68673
6.48747
6.26576
6.02334
5.76199
5.48352
5.18973
4.88235
4.56305
4.23344
3.89499
3.54911
3.19707
2.84004
2.47909
2.11516
1.74912
1.38172
1.01362
0.645415
0.277609
-0.0893576
-0.455109
-0.819324
-1.18173
-1.54211
-1.90026
-2.25604
-2.60932
-2.96001
-3.30804
-3.65334
-3.99589
-4.33566
-4.67263
-5.00682
-5.33823
-5.66687
-5.99277
-6.31596
-6.63646
-6.9543
-7.26954
-7.58219
-7.8923
-8.19991
-8.50505
-8.80776
-9.10807
-9.40602
-9.70165
-9.99496
-10.286
-10.5748
-10.8613
-11.1456
-11.4277
-11.7076
-11.9852
-12.2606
-12.5337
-12.8045
-13.073
-13.3392
-13.6028
-13.864
-14.1226
-14.3785
-14.6316
-14.8818
-15.1289
-15.3729
-15.6134
-15.8503
-16.0834
-16.3125
-16.5374
-16.7577
-16.9732
-17.1836
-17.3886
-17.5879
-17.7812
-17.9682
-18.1485
-18.3218
-18.488
-18.6466
-18.7976
-18.9406
-19.0756
-19.2025
-19.3212
6.98347
6.98177
6.95202
6.89124
6.80333
6.6897
6.55089
6.38797
6.2023
5.99534
5.7686
5.52365
5.26209
4.98551
4.69546
4.39347
4.08097
3.75933
3.42986
3.09373
2.75206
2.40586
2.05604
1.70344
1.3488
0.992781
0.635979
0.278911
-0.0779663
-0.434256
-0.789614
-1.14374
-1.49639
-1.84734
-2.1964
-2.54344
-2.88831
-3.23093
-3.57121
-3.90908
-4.2445
-4.57742
-4.90784
-5.23573
-5.56109
-5.88391
-6.20421
-6.522
-6.83728
-7.15009
-7.46044
-7.76835
-8.07385
-8.37696
-8.6777
-8.97609
-9.27216
-9.56592
-9.85739
-10.1466
-10.4335
-10.7182
-11.0006
-11.2808
-11.5587
-11.8343
-12.1076
-12.3786
-12.6472
-12.9135
-13.1772
-13.4385
-13.6972
-13.9532
-14.2064
-14.4567
-14.7041
-14.9483
-15.1892
-15.4266
-15.6605
-15.8904
-16.1164
-16.338
-16.5552
-16.7675
-16.9749
-17.1769
-17.3734
-17.564
-17.7484
-17.9265
-18.0978
-18.2623
-18.4196
-18.5696
-18.7121
-18.8469
-18.9741
-19.0936
6.66646
6.66486
6.63719
6.58065
6.49883
6.39298
6.26354
6.11142
5.9378
5.74396
5.53122
5.30096
5.05459
4.79353
4.51918
4.2329
3.93602
3.62978
3.31539
2.99395
2.66651
2.33403
1.99739
1.65738
1.31474
0.97013
0.624131
0.277271
-0.0699816
-0.417216
-0.764068
-1.11022
-1.4554
-1.79935
-2.14189
-2.48282
-2.82201
-3.15931
-3.49463
-3.82788
-4.15898
-4.48788
-4.81453
-5.13889
-5.46094
-5.78066
-6.09804
-6.41307
-6.72575
-7.03608
-7.34407
-7.64972
-7.95305
-8.25406
-8.55276
-8.84917
-9.14328
-9.43512
-9.72469
-10.012
-10.297
-10.5798
-10.8603
-11.1385
-11.4143
-11.6879
-11.9592
-12.228
-12.4944
-12.7584
-13.0199
-13.2787
-13.5349
-13.7884
-14.039
-14.2866
-14.5312
-14.7726
-15.0106
-15.2451
-15.476
-15.703
-15.9259
-16.1446
-16.3587
-16.5682
-16.7727
-16.9719
-17.1658
-17.3539
-17.5361
-17.712
-17.8816
-18.0445
-18.2006
-18.3497
-18.4917
-18.6265
-18.754
-18.8742
6.37515
6.37364
6.34781
6.29501
6.21856
6.11958
5.99843
5.85588
5.69298
5.51083
5.31059
5.09349
4.86078
4.61372
4.35358
4.08158
3.79893
3.50678
3.20624
2.89834
2.58407
2.26432
1.93994
1.61171
1.28034
0.946455
0.610658
0.27347
-0.0646359
-0.403235
-0.741952
-1.08045
-1.41844
-1.75565
-2.09186
-2.42687
-2.76051
-3.09263
-3.42309
-3.7518
-4.07864
-4.40356
-4.72647
-5.04732
-5.36608
-5.68269
-5.99714
-6.30939
-6.61944
-6.92727
-7.23286
-7.53622
-7.83734
-8.13621
-8.43283
-8.72721
-9.01933
-9.30921
-9.59682
-9.88218
-10.1653
-10.4461
-10.7246
-11.0008
-11.2747
-11.5462
-11.8153
-12.0821
-12.3463
-12.608
-12.8671
-13.1236
-13.3774
-13.6284
-13.8764
-14.1215
-14.3634
-14.602
-14.8373
-15.069
-15.2971
-15.5212
-15.7413
-15.9571
-16.1685
-16.3752
-16.5771
-16.7738
-16.9652
-17.151
-17.3311
-17.5052
-17.6731
-17.8346
-17.9896
-18.138
-18.2795
-18.4142
-18.542
-18.6627
6.10784
6.10642
6.0822
6.0327
5.961
5.86811
5.7543
5.62026
5.46689
5.29516
5.10611
4.90081
4.68039
4.44596
4.19867
3.93964
3.66995
3.39069
3.10285
2.80741
2.50528
2.19733
1.88436
1.56711
1.24626
0.922451
0.596256
0.2682
-0.0612419
-0.391639
-0.722605
-1.05379
-1.38489
-1.71562
-2.04574
-2.37503
-2.7033
-3.03037
-3.3561
-3.68037
-4.00305
-4.32404
-4.64327
-4.96066
-5.27615
-5.58968
-5.90121
-6.2107
-6.51811
-6.82342
-7.12661
-7.42766
-7.72654
-8.02325
-8.31777
-8.61009
-8.9002
-9.18809
-9.47373
-9.75713
-10.0383
-10.3171
-10.5936
-10.8679
-11.1397
-11.4092
-11.6762
-11.9408
-12.2029
-12.4624
-12.7192
-12.9734
-13.2248
-13.4733
-13.7189
-13.9614
-14.2007
-14.4368
-14.6694
-14.8985
-15.1238
-15.3453
-15.5627
-15.7759
-15.9846
-16.1888
-16.3881
-16.5825
-16.7716
-16.9553
-17.1335
-17.3058
-17.4722
-17.6325
-17.7865
-17.9341
-18.0753
-18.2098
-18.3378
-18.4592
5.86303
5.86168
5.83889
5.79232
5.72482
5.63732
5.53003
5.40355
5.25867
5.09626
4.91721
4.7225
4.51312
4.29009
4.05443
3.80716
3.54928
3.28177
3.00556
2.72156
2.43063
2.13359
1.83118
1.52414
1.21312
0.898729
0.581544
0.26208
-0.0591864
-0.381822
-0.705433
-1.02966
-1.35419
-1.67872
-2.00299
-2.32678
-2.64986
-2.97206
-3.29321
-3.61316
-3.93178
-4.24895
-4.56457
-4.87856
-5.19083
-5.50132
-5.80996
-6.1167
-6.4215
-6.72431
-7.0251
-7.32383