/*--------------------------------*- C++ -*----------------------------------*\
| =========                 |                                                 |
| \\      /  F ield         | OpenFOAM: The Open Source CFD Toolbox           |
|  \\    /   O peration     | Version:  2406                                  |
|   \\  /    A nd           | Website:  www.openfoam.com                      |
|    \\/     M anipulation  |                                                 |
\*---------------------------------------------------------------------------*/
FoamFile
{
    version     2.0;
    format      ascii;
    arch        "LSB;label=32;scalar=64";
    class       surfaceScalarField;
    location    "400";
    object      phi;
}
// * * * * * * * * * * * * * * * * * * * * * * * * * * * * * * * * * * * * * //

dimensions      [0 3 -1 0 0 0 0];

oriented        oriented;

internalField   nonuniform List<scalar> 
299000
(
0.0796643
0.0203357
0.0586791
0.0209852
0.0442547
0.0144245
0.0348019
0.00945276
0.0285
0.00630194
0.0241897
0.00431027
0.021138
0.00305169
0.0188885
0.00224951
0.0171646
0.00172395
0.0157984
0.00136619
0.0146855
0.00111284
0.0137587
0.000926839
0.0129728
0.000785893
0.0122966
0.000676167
0.0117078
0.000588785
0.01119
0.000517861
0.0107306
0.000459369
0.0103201
0.000410469
0.00995103
0.000369107
0.00961727
0.000333763
0.00931398
0.000303289
0.00903718
0.000276804
0.00878355
0.000253621
0.00855036
0.000233198
0.00833525
0.000215101
0.00813628
0.000198979
0.00795173
0.000184547
0.00778016
0.000171569
0.00762031
0.000159851
0.00747108
0.00014923
0.00733151
0.000139567
0.00720076
0.000130748
0.00707809
0.000122674
0.00696283
0.00011526
0.0068544
0.000108432
0.00675227
0.000102129
0.00665597
9.62959e-05
0.00656509
9.0884e-05
0.00647924
8.58521e-05
0.00639807
8.11633e-05
0.00632129
7.6785e-05
0.0062486
7.26886e-05
0.00617975
6.88484e-05
0.00611451
6.52416e-05
0.00605266
6.18476e-05
0.00599401
5.86482e-05
0.00593839
5.56268e-05
0.00588562
5.27684e-05
0.00583556
5.00595e-05
0.00578807
4.74877e-05
0.00574303
4.50418e-05
0.00570032
4.27115e-05
0.00565983
4.04872e-05
0.00562147
3.83603e-05
0.00558515
3.63227e-05
0.00555078
3.43668e-05
0.0055183
3.24858e-05
0.00548762
3.0673e-05
0.0054587
2.89222e-05
0.00543147
2.72277e-05
0.00540589
2.55837e-05
0.0053819
2.3985e-05
0.00535948
2.24264e-05
0.00533858
2.09029e-05
0.00531917
1.94095e-05
0.00530123
1.79414e-05
0.00528473
1.64936e-05
0.00526967
1.50612e-05
0.00525603
1.36391e-05
0.00524381
1.22221e-05
0.00523301
1.08047e-05
0.00522363
9.38098e-06
0.00521568
7.94473e-06
0.00520919
6.48908e-06
0.00520419
5.00647e-06
0.0052007
3.48844e-06
0.00519877
1.92541e-06
0.00519847
3.06384e-07
0.00519985
-1.38143e-06
0.005203
-3.15314e-06
0.00520803
-5.02675e-06
0.00521505
-7.02403e-06
0.00522422
-9.17176e-06
0.00523573
-1.15035e-05
0.00524979
-1.4062e-05
0.00526669
-1.69035e-05
0.0052868
-2.01045e-05
0.00531057
-2.37735e-05
0.00533864
-2.80729e-05
0.00537191
-3.32619e-05
0.00541169
-3.97804e-05
0.00546011
-4.84216e-05
0.0055208
-6.0689e-05
0.00560035
-7.95528e-05
0.00571147
-0.000111121
0.00587973
-0.000168262
0.00615728
-0.00027755
0.00665199
-0.000494704
0.00763216
-0.00098017
-0.00231867
0.00995082
0.105208
0.0151279
0.100188
0.026005
0.0901928
0.0244197
0.0797504
0.0198952
0.0705681
0.0154843
0.0629864
0.011892
0.056844
0.00919408
0.0518637
0.00722986
0.0477872
0.00580043
0.044407
0.00474641
0.0415652
0.00395459
0.0391445
0.0033475
0.0370579
0.00287258
0.0352399
0.00249408
0.0336414
0.00218731
0.0322243
0.00193497
0.030959
0.00172465
0.0298222
0.00154733
0.028795
0.00139629
0.0278623
0.00126646
0.0270116
0.00115395
0.0262327
0.00105574
0.0255169
0.000969438
0.0248569
0.000893149
0.0242467
0.000825338
0.0236809
0.000764761
0.0231551
0.000710396
0.0226652
0.000661397
0.022208
0.00061706
0.0217805
0.000576793
0.0213799
0.000540097
0.0210041
0.000506549
0.020651
0.000475787
0.0203188
0.000447498
0.0200058
0.000421414
0.0197106
0.000397303
0.019432
0.000374962
0.0191686
0.000354214
0.0189196
0.000334903
0.0186839
0.000316891
0.0184606
0.000300058
0.018249
0.000284295
0.0180483
0.000269507
0.017858
0.000255608
0.0176773
0.00024252
0.0175058
0.000230176
0.0173429
0.000218512
0.0171882
0.000207472
0.0170412
0.000197005
0.0169016
0.000187064
0.0167691
0.000177606
0.0166432
0.000168593
0.0165237
0.000159989
0.0164103
0.00015176
0.0163027
0.000143877
0.0162008
0.00013631
0.0161043
0.000129032
0.0160129
0.00012202
0.0159266
0.00011525
0.0158451
0.000108699
0.0157683
0.000102346
0.0156962
9.61711e-05
0.0156284
9.01547e-05
0.0155651
8.42779e-05
0.0155059
7.85219e-05
0.015451
7.28684e-05
0.0154002
6.72989e-05
0.0153535
6.17949e-05
0.0153108
5.63374e-05
0.0152721
5.09069e-05
0.0152374
4.54829e-05
0.0152068
4.00437e-05
0.0151801
3.4566e-05
0.0151576
2.90247e-05
0.0151392
2.33918e-05
0.0151251
1.76364e-05
0.0151153
1.17233e-05
0.01511
5.61222e-06
0.0151093
-7.43541e-07
0.0151136
-7.39906e-06
0.015123
-1.44201e-05
0.0151378
-2.18865e-05
0.0151586
-2.98965e-05
0.0151856
-3.85735e-05
0.0152196
-4.80754e-05
0.0152614
-5.86101e-05
0.0153117
-7.04591e-05
0.015372
-8.40176e-05
0.0154437
-9.98635e-05
0.0155294
-0.000118881
0.0156321
-0.000142484
0.0157567
-0.000173036
0.0159106
-0.000214631
0.0161056
-0.000274575
0.0163607
-0.00036619
0.0167063
-0.000513884
0.0171905
-0.000761664
0.0178854
-0.00118963
0.0188568
-0.00195158
-0.00327363
0.0198118
0.105142
0.00998549
0.10894
0.0222072
0.107707
0.0256524
0.103024
0.0245787
0.0967863
0.0217219
0.0902301
0.0184481
0.0840047
0.0154195
0.0783722
0.0128624
0.0733879
0.0107848
0.0690143
0.00912001
0.0651809
0.00778802
0.0618117
0.00671664
0.0588371
0.00584723
0.0561967
0.00513446
0.0538401
0.00454387
0.0517256
0.00404947
0.0498187
0.00363155
0.048091
0.00327509
0.0465187
0.00296852
0.0450823
0.00270285
0.0437653
0.00247102
0.0425536
0.00226742
0.0414354
0.00208758
0.0404007
0.00192786
0.0394408
0.00178531
0.038548
0.00165749
0.037716
0.0015424
0.036939
0.00143837
0.0362121
0.00134398
0.0355309
0.00125804
0.0348914
0.00117955
0.0342903
0.00110764
0.0337246
0.00104158
0.0331913
0.000980718
0.0326882
0.000924515
0.0322131
0.000872483
0.0317638
0.000824204
0.0313387
0.000779308
0.0309362
0.000737471
0.0305546
0.000698406
0.0301928
0.000661858
0.0298495
0.000627601
0.0295236
0.000595433
0.029214
0.000565174
0.0289199
0.00053666
0.0286403
0.000509745
0.0283745
0.000484297
0.0281218
0.000460196
0.0278815
0.000437333
0.027653
0.000415609
0.0274356
0.000394932
0.027229
0.000375221
0.0270326
0.000356397
0.026846
0.00033839
0.0266687
0.000321135
0.0265004
0.00030457
0.0263408
0.000288639
0.0261896
0.000273288
0.0260464
0.000258468
0.0259109
0.000244129
0.025783
0.000230228
0.0256625
0.00021672
0.0255491
0.000203564
0.0254426
0.00019072
0.025343
0.000178146
0.0252501
0.000165805
0.0251637
0.000153656
0.0250839
0.000141661
0.0250104
0.000129778
0.0249434
0.000117968
0.0248827
0.000106185
0.0248283
9.43856e-05
0.0247804
8.25198e-05
0.0247389
7.0535e-05
0.0247039
5.83731e-05
0.0246755
4.59694e-05
0.024654
3.3251e-05
0.0246395
2.01346e-05
0.0246322
6.52354e-06
0.0246325
-7.69555e-06
0.0246408
-2.26579e-05
0.0246574
-3.85272e-05
0.024683
-5.55046e-05
0.0247183
-7.38417e-05
0.0247641
-9.386e-05
0.0248214
-0.000115979
0.0248917
-0.000140763
0.0249767
-0.000168987
0.0250786
-0.000201763
0.0252004
-0.000240725
0.0253463
-0.000288371
0.0255219
-0.000348627
0.0257351
-0.000427824
0.0259969
-0.000536337
0.026322
-0.000691274
0.0267286
-0.00092054
0.0272351
-0.00126817
0.0278455
-0.00179996
0.0284959
-0.00260204
-0.00372479
0.0289471
0.103312
0.0066734
0.108501
0.017018
0.111574
0.0225793
0.111772
0.0243809
0.109657
0.0238372
0.106065
0.0220401
0.101731
0.019753
0.0971673
0.0174264
0.0926765
0.0152755
0.0884179
0.0133786
0.0844608
0.0117452
0.0808234
0.010354
0.0774975
0.00917316
0.0744621
0.00816985
0.0716916
0.00731435
0.0691598
0.00658132
0.0668416
0.00594974
0.0647143
0.00540243
0.0627574
0.0049254
0.0609529
0.00450732
0.059285
0.00413893
0.0577397
0.00381269
0.0563049
0.00352238
0.0549699
0.0032629
0.0537252
0.00302999
0.0525626
0.0028201
0.0514747
0.00263025
0.0504552
0.00245793
0.0494981
0.00230101
0.0485985
0.00215766
0.0477517
0.00202633
0.0469537
0.00190568
0.0462007
0.00179456
0.0454895
0.00169195
0.044817
0.00159698
0.0441806
0.00150888
0.0435779
0.00142698
0.0430065
0.0013507
0.0424644
0.00127949
0.0419499
0.00121291
0.0414613
0.00115053
0.0409969
0.00109198
0.0405554
0.00103694
0.0401355
0.000985105
0.0397359
0.00093621
0.0393556
0.000890013
0.0389936
0.000846295
0.038649
0.000804857
0.0383208
0.000765518
0.0380083
0.000728112
0.0377107
0.000692489
0.0374274
0.000658509
0.0371578
0.000626043
0.0369012
0.000594974
0.0366572
0.00056519
0.0364251
0.00053659
0.0362047
0.000509077
0.0359954
0.000482563
0.0357969
0.000456962
0.0356089
0.000432194
0.0354309
0.000408183
0.0352628
0.000384855
0.0351042
0.00036214
0.034955
0.00033997
0.0348148
0.000318277
0.0346836
0.000296996
0.0345612
0.00027606
0.0344475
0.000255403
0.0343423
0.000234959
0.0342456
0.000214658
0.0341574
0.000194427
0.0340776
0.000174192
0.0340062
0.000153871
0.0339434
0.000133377
0.0338891
0.000112615
0.0338436
9.14785e-05
0.033807
6.98492e-05
0.0337796
4.75912e-05
0.0337616
2.45484e-05
0.0337533
5.37898e-07
0.0337553
-2.46574e-05
0.0337681
-5.12987e-05
0.0337923
-7.97054e-05
0.0338287
-0.000110275
0.0338784
-0.00014351
0.0339425
-0.00018006
0.0340225
-0.000220782
0.0341203
-0.000266837
0.0342384
-0.000319835
0.0343797
-0.000382065
0.0345482
-0.000456867
0.0347488
-0.000549209
0.0349876
-0.00066659
0.0352716
-0.000820396
0.0356082
-0.00102778
0.0360015
-0.00131389
0.0364468
-0.00171348
0.036916
-0.00226916
0.0373329
-0.00301889
-0.00395294
0.037561
0.102077
0.00459592
0.106348
0.0127479
0.110418
0.0185086
0.113046
0.0217533
0.113912
0.0229712
0.113196
0.0227556
0.111293
0.0216569
0.108612
0.0201065
0.105495
0.0183933
0.102184
0.0166891
0.0988444
0.015085
0.0955769
0.0136215
0.0924403
0.0123098
0.0894647
0.0111455
0.0866624
0.0101167
0.0840347
0.00920896
0.0815769
0.00840758
0.0792805
0.00769879
0.0771357
0.00707024
0.0751318
0.00651116
0.0732586
0.00601222
0.0715058
0.00556545
0.0698641
0.00516404
0.0683248
0.00480219
0.0668799
0.00447494
0.0655219
0.00417806
0.0642443
0.0039079
0.0630409
0.00366137
0.0619061
0.00343576
0.060835
0.00322876
0.059823
0.00303836
0.0588659
0.0028628
0.0579599
0.00270055
0.0571015
0.00255027
0.0562877
0.00241078
0.0555156
0.00228105
0.0547824
0.00216016
0.0540858
0.00204729
0.0534236
0.00194172
0.0527937
0.00184281
0.0521942
0.00174998
0.0516235
0.00166271
0.0510799
0.00158053
0.050562
0.00150303
0.0500684
0.00142982
0.0495978
0.00136056
0.0491492
0.00129495
0.0487213
0.00123268
0.0483133
0.00117352
0.0479243
0.0011172
0.0475532
0.00106353
0.0471994
0.00101229
0.0468622
0.000963295
0.0465408
0.00091638
0.0462346
0.000871381
0.045943
0.00082815
0.0456656
0.000786546
0.0454017
0.000746437
0.045151
0.0007077
0.0449129
0.000670216
0.0446872
0.000633875
0.0444735
0.000598567
0.0442715
0.00056419
0.0440808
0.000530643
0.0439013
0.000497827
0.0437326
0.000465646
0.0435747
0.000434003
0.0434273
0.0004028
0.0432903
0.000371941
0.0431636
0.000341323
0.0430472
0.000310842
0.042941
0.000280388
0.042845
0.000249844
0.0427593
0.000219085
0.042684
0.000187974
0.0426191
0.000156359
0.0425649
0.000124071
0.0425215
9.09186e-05
0.0424894
5.66812e-05
0.0424688
2.11027e-05
0.0424603
-1.61189e-05
0.0424644
-5.53446e-05
0.0424817
-9.70127e-05
0.042513
-0.000141662
0.0425595
-0.000189969
0.0426222
-0.000242791
0.0427027
-0.000301244
0.0428027
-0.000366797
0.0429243
-0.000441434
0.0430701
-0.000527875
0.0432431
-0.000629911
0.0434468
-0.000752898
0.0436846
-0.000904433
0.0439595
-0.00109526
0.044272
-0.00134026
0.0446173
-0.00165917
0.0449798
-0.00207598
0.0453253
-0.00261466
0.0455938
-0.00328746
-0.00406929
0.0457102
0.101292
0.00330372
0.104405
0.0096351
0.108104
0.0148093
0.111405
0.0184522
0.113752
0.0206245
0.114946
0.0215614
0.115041
0.0215622
0.114222
0.0209255
0.112714
0.019901
0.110729
0.0186744
0.108441
0.0173731
0.105984
0.0160783
0.103456
0.0148378
0.100925
0.0136765
0.0984363
0.0126052
0.0960197
0.0116256
0.0936927
0.0107346
0.0914651
0.00992641
0.0893411
0.00919424
0.0873214
0.00853088
0.0854042
0.0079294
0.0835863
0.00738329
0.0818638
0.00688663
0.0802319
0.00643409
0.0786859
0.0060209
0.0772211
0.00564287
0.0758327
0.00529625
0.0745164
0.00497776
0.0732676
0.00468451
0.0720824
0.00441394
0.070957
0.00416379
0.0698877
0.00393206
0.0688713
0.00371698
0.0679046
0.00351699
0.0669847
0.0033307
0.0661088
0.00315686
0.0652746
0.00299436
0.0644797
0.00284222
0.0637219
0.00269954
0.0629992
0.00256552
0.0623097
0.00243945
0.0616517
0.00232068
0.0610237
0.00220862
0.0604239
0.00210274
0.0598512
0.00200255
0.0593042
0.00190762
0.0587816
0.00181753
0.0582823
0.00173194
0.0578054
0.00165048
0.0573497
0.00157287
0.0569144
0.0014988
0.0564987
0.00142803
0.0561017
0.00136029
0.0557227
0.00129537
0.055361
0.00123305
0.055016
0.00117313
0.0546871
0.00111544
0.0543738
0.00105978
0.0540755
0.00100601
0.0537918
0.000953953
0.0535222
0.00090347
0.0532663
0.000854414
0.0530239
0.000806645
0.0527945
0.00076003
0.0525779
0.000714436
0.0523738
0.000669732
0.052182
0.00062579
0.0520023
0.00058248
0.0518346
0.000539669
0.0516787
0.000497224
0.0515345
0.000455005
0.051402
0.000412865
0.0512812
0.000370651
0.0511721
0.000328196
0.0510748
0.000285321
0.0509893
0.000241827
0.0509159
0.000197495
0.0508547
0.000152077
0.0508061
0.000105289
0.0507704
5.68044e-05
0.0507481
6.24076e-06
0.0507396
-4.68556e-05
0.0507456
-0.000103029
0.0507669
-0.000162944
0.0508043
-0.000227416
0.050859
-0.000297472
0.0509322
-0.00037441
0.0510253
-0.000459907
0.05114
-0.000556152
0.0512782
-0.000666042
0.0514417
-0.000793446
0.0516324
-0.000943556
0.0518513
-0.00112332
0.0520979
-0.00134193
0.0523688
-0.00161112
0.0526546
-0.00194504
0.0529374
-0.00235872
0.0531868
-0.00286403
0.0533606
-0.00346124
-0.00412547
0.0534167
0.100819
0.00248519
0.103016
0.00743801
0.105987
0.0118377
0.109099
0.01534
0.111866
0.0178579
0.113985
0.0194427
0.115326
0.0202212
0.115892
0.020359
0.115768
0.0200254
0.115072
0.0193698
0.113933
0.0185128
0.112465
0.0175457
0.11077
0.0165335
0.108926
0.0155205
0.106996
0.0145351
0.105027
0.0135943
0.103054
0.0127073
0.101103
0.0118781
0.0991897
0.0111073
0.0973273
0.0103932
0.0955235
0.00973324
0.0937829
0.00912385
0.0921081
0.00856141
0.0905
0.0080422
0.0889583
0.00756262
0.0874819
0.00711928
0.0860691
0.00670899
0.084718
0.00632884
0.0834264
0.00597615
0.0821919
0.0056485
0.081012
0.00534367
0.0798844
0.00505967
0.0788066
0.00479471
0.0777765
0.00454714
0.0767917
0.0043155
0.0758501
0.00409846
0.0749496
0.00389481
0.0740884
0.00370347
0.0732645
0.00352344
0.0724762
0.00335383
0.0717218
0.00319383
0.0709998
0.00304269
0.0703087
0.00289974
0.069647
0.00276436
0.0690136
0.00263598
0.0684071
0.00251409
0.0678265
0.00239821
0.0672705
0.0022879
0.0667382
0.00218277
0.0662287
0.00208243
0.0657409
0.00198654
0.0652742
0.00189479
0.0648276
0.00180687
0.0644004
0.00172251
0.063992
0.00164144
0.0636018
0.00156343
0.063229
0.00148824
0.0628731
0.00141565
0.0625336
0.00134547
0.0622101
0.00127749
0.061902
0.00121153
0.061609
0.00114741
0.0613307
0.00108495
0.0610668
0.00102399
0.0608168
0.000964361
0.0605807
0.000905896
0.060358
0.000848434
0.0601487
0.000791813
0.0599525
0.000735868
0.0597693
0.00068043
0.059599
0.000625325
0.0594415
0.000570371
0.0592967
0.000515376
0.0591648
0.000460135
0.0590457
0.000404426
0.0589395
0.000348006
0.0588464
0.000290607
0.0587666
0.000231929
0.0587002
0.00017163
0.0586477
0.000109321
0.0586094
4.4547e-05
0.0585858
-2.32222e-05
0.0585773
-9.46184e-05
0.0585848
-0.000170399
0.0586089
-0.000251487
0.0586504
-0.000339012
0.0587104
-0.000434382
0.0587898
-0.000539364
0.0588899
-0.000656196
0.0590116
-0.000787736
0.0591558
-0.00093764
0.0593228
-0.00111059
0.059512
-0.00131249
0.0597207
-0.00155067
0.0599434
-0.00183379
0.0601696
-0.00217127
0.0603827
-0.00257179
0.0605587
-0.00304006
0.0606691
-0.00357158
-0.00414591
0.0606895
0.100541
0.00194436
0.102093
0.00588591
0.10437
0.0095611
0.106997
0.0127121
0.109631
0.0152243
0.111999
0.0170751
0.11392
0.0182994
0.115307
0.0189727
0.116141
0.0191912
0.116456
0.0190546
0.116314
0.0186553
0.115787
0.0180724
0.114951
0.01737
0.113873
0.0165978
0.112616
0.0157928
0.111228
0.0149817
0.109753
0.0141828
0.108223
0.0134082
0.106664
0.0126657
0.105098
0.0119596
0.103539
0.0112919
0.102
0.010663
0.100489
0.0100723
0.0990127
0.00951861
0.0975753
0.00900009
0.0961797
0.00851482
0.094828
0.00806075
0.093521
0.00763583
0.0922591
0.00723804
0.0910421
0.00686546
0.0898695
0.00651624
0.0887406
0.00618866
0.0876542
0.00588111
0.0866092
0.0055921
0.0856045
0.00532025
0.0846386
0.00506428
0.0837104
0.00482301
0.0828185
0.00459537
0.0819616
0.00438035
0.0811384
0.00417704
0.0803477
0.00398458
0.0795881
0.00380221
0.0788587
0.00362921
0.0781581
0.00346492
0.0774854
0.00330871
0.0768394
0.00316004
0.0762193
0.00301838
0.0756239
0.00288324
0.0750525
0.00275418
0.0745042
0.00263077
0.0739781
0.00251263
0.0734735
0.00239939
0.0729896
0.00229072
0.0725258
0.0021863
0.0720814
0.00208582
0.0716559
0.00198901
0.0712485
0.0018956
0.0708588
0.00180533
0.0704863
0.00171796
0.0701305
0.00163327
0.069791
0.00155104
0.0694674
0.00147104
0.0691593
0.00139308
0.0688663
0.00131696
0.0685882
0.00124247
0.0683247
0.00116943
0.0680755
0.00109763
0.0678404
0.00102689
0.0676193
0.00095701
0.0674119
0.000887786
0.0672182
0.000819013
0.0670381
0.000750475
0.0668715
0.000681945
0.0667185
0.00061318
0.066579
0.00054392
0.0664531
0.000473883
0.066341
0.000402756
0.0662427
0.000330193
0.0661585
0.000255804
0.0660887
0.000179145
0.0660336
9.9707e-05
0.0659934
1.68984e-05
0.0659688
-6.9974e-05
0.0659601
-0.000161731
0.065968
-0.000259354
0.065993
-0.000364025
0.0660358
-0.000477181
0.066097
-0.000600581
0.0661772
-0.000736386
0.0662767
-0.000887257
0.0663956
-0.00105647
0.066533
-0.001248
0.0666871
-0.00146663
0.0668543
-0.00171788
0.0670283
-0.00200779
0.0671993
-0.00234227
0.0673533
-0.00272577
0.0674724
-0.00315911
0.0675372
-0.00363642
-0.0041419
0.0675332
0.100374
0.00157001
0.101489
0.00477102
0.103211
0.00783961
0.105327
0.0105955
0.107614
0.0129373
0.109868
0.0148211
0.111926
0.0162418
0.113673
0.0172252
0.115046
0.0178184
0.116021
0.0180793
0.116608
0.018069
0.116834
0.017846
0.116741
0.0174627
0.116375
0.0169641
0.115781
0.0163871
0.115001
0.015761
0.114076
0.0151085
0.113037
0.0144467
0.111915
0.0137883
0.110732
0.0131422
0.109509
0.0125146
0.108262
0.0119097
0.107005
0.0113298
0.105747
0.0107763
0.104498
0.0102496
0.103263
0.00974962
0.102048
0.00927577
0.100857
0.00882718
0.099692
0.00840281
0.0985559
0.00800153
0.09745
0.00762214
0.0963753
0.00726341
0.0953322
0.00692416
0.0943211
0.00660321
0.0933419
0.00629944
0.0923944
0.00601178
0.0914782
0.0057392
0.0905928
0.00548074
0.0897377
0.00523549
0.0889122
0.00500259
0.0881155
0.00478126
0.0873469
0.00457075
0.0866058
0.00437035
0.0858913
0.00417941
0.0852027
0.00399731
0.0845392
0.0038235
0.0839002
0.00365744
0.0832848
0.00349861
0.0826924
0.00334657
0.0821223
0.00320086
0.0815739
0.00306108
0.0810464
0.00292683
0.0805394
0.00279776
0.0800522
0.00267352
0.0795842
0.00255377
0.079135
0.00243822
0.0787041
0.00232657
0.0782908
0.00221854
0.077895
0.00211385
0.077516
0.00201227
0.0771535
0.00191353
0.0768071
0.00181739
0.0764766
0.00172363
0.0761615
0.00163202
0.0758616
0.00154233
0.0755767
0.00145435
0.0753065
0.00136784
0.0750508
0.00128259
0.0748094
0.00119838
0.0745823
0.00111497
0.0743691
0.00103213
0.07417
0.000949609
0.0739848
0.000867154
0.0738135
0.00078449
0.0736561
0.000701321
0.0735126
0.000617332
0.0733832
0.000532172
0.073268
0.000445459
0.073167
0.000356763
0.0730805
0.0002656
0.0730088
0.000171421
0.0729521
7.35941e-05
0.0729108
-2.86099e-05
0.0728851
-0.000136043
0.0728754
-0.000249705
0.0728822
-0.000370779
0.0729057
-0.000500669
0.0729462
-0.000641049
0.0730037
-0.000793915
0.0730781
-0.00096164
0.0731686
-0.00114702
0.073274
-0.00135333
0.0733916
-0.00158423
0.0735174
-0.00184374
0.0736455
-0.00213584
0.0737671
-0.00246395
0.0738713
-0.00282991
0.0739448
-0.00323258
0.0739745
-0.00366614
-0.00411861
0.0739512
0.10027
0.00129978
0.10109
0.00395094
0.102398
0.00653233
0.104073
0.00891998
0.105976
0.0110341
0.107967
0.0128305
0.109918
0.0142904
0.111727
0.0154165
0.113318
0.0162276
0.114643
0.0167541
0.11568
0.0170322
0.116425
0.0171006
0.116891
0.0169972
0.117098
0.0167573
0.117073
0.0164123
0.116844
0.0159893
0.116442
0.0155108
0.115894
0.0149952
0.115224
0.0144575
0.114458
0.013909
0.113613
0.0133589
0.112709
0.0128139
0.11176
0.0122789
0.110779
0.0117574
0.109776
0.0112521
0.108761
0.0107644
0.107742
0.0102954
0.106724
0.00984543
0.105712
0.00941467
0.10471
0.00900289
0.103723
0.00860968
0.102752
0.00823451
0.101799
0.00787673
0.100867
0.00753565
0.0999557
0.00721052
0.0990668
0.00690061
0.0982009
0.00660516
0.0973582
0.00632343
0.096539
0.00605468
0.0957434
0.00579823
0.0949712
0.00555338
0.0942225
0.0053195
0.0934969
0.00509596
0.0927941
0.00488216
0.0921139
0.00467755
0.0914558
0.0044816
0.0908194
0.00429379
0.0902044
0.00411364
0.0896103
0.0039407
0.0890366
0.00377453
0.088483
0.00361473
0.0879489
0.0034609
0.087434
0.00331268
0.0869378
0.00316971
0.0864599
0.00303165
0.086
0.00289818
0.0855575
0.002769
0.0851323
0.00264381
0.0847238
0.00252232
0.0843318
0.00240427
0.0839559
0.00228938
0.0835959
0.0021774
0.0832515
0.00206808
0.0829223
0.00196117
0.0826082
0.00185642
0.082309
0.0017536
0.0820244
0.00165245
0.0817542
0.00155273
0.0814984
0.0014542
0.0812568
0.00135661
0.0810292
0.00125969
0.0808156
0.00116318
0.080616
0.00106678
0.0804303
0.000970203
0.0802585
0.000873124
0.0801006
0.000775198
0.0799568
0.000676049
0.079827
0.000575265
0.0797113
0.000472388
0.07961
0.00036691
0.0795232
0.000258256
0.079451
0.000145775
0.0793937
2.87233e-05
0.0793514
-9.37514e-05
0.0793243
-0.000222635
0.0793126
-0.000359068
0.0793163
-0.000504375
0.0793354
-0.000660096
0.0793695
-0.000828009
0.079418
-0.00101016
0.0794798
-0.00120886
0.0795532
-0.00142669
0.0796353
-0.00166639
0.0797223
-0.00193072
0.0798086
-0.00222218
0.0798872
-0.0025425
0.0799493
-0.00289199
0.0799854
-0.00326865
0.0799864
-0.0036672
-0.00407855
0.0799463
0.100202
0.00109747
0.100821
0.00333205
0.101827
0.00552671
0.103151
0.00759543
0.104708
0.00947783
0.106402
0.011136
0.108144
0.0125489
0.10985
0.0137098
0.111454
0.0146237
0.112903
0.0153048
0.114163
0.015773
0.115211
0.016052
0.116041
0.016167
0.116655
0.0161432
0.117063
0.0160047
0.117279
0.0157734
0.11732
0.0154692
0.117207
0.0151091
0.116956
0.0147076
0.116588
0.014277
0.11612
0.0138272
0.115568
0.0133665
0.114945
0.0129013
0.114266
0.0124368
0.113541
0.0119769
0.11278
0.0115248
0.111993
0.0110826
0.111187
0.0106519
0.110367
0.0102341
0.109541
0.00982967
0.108711
0.00943917
0.107883
0.00906275
0.107059
0.00870041
0.106243
0.00835197
0.105436
0.00801719
0.104641
0.0076957
0.103859
0.0073871
0.103092
0.00709096
0.10234
0.00680679
0.101604
0.00653411
0.100885
0.00627242
0.100183
0.00602124
0.0994987
0.00578007
0.0988325
0.00554843
0.0981842
0.00532585
0.0975539
0.00511187
0.0969416
0.00490606
0.0963473
0.00470799
0.0957708
0.00451723
0.0952119
0.0043334
0.0946705
0.00415611
0.0941464
0.003985
0.0936394
0.0038197
0.0931492
0.00365988
0.0926757
0.00350521
0.0922185
0.00335536
0.0917774
0.00321005
0.0913523
0.00306896
0.0909428
0.00293181
0.0905487
0.00279832
0.0901699
0.00266822
0.0898061
0.00254123
0.0894571
0.00241711
0.0891227
0.00229558
0.0888027
0.00217639
0.088497
0.00205929
0.0882054
0.00194401
0.0879279
0.0018303
0.0876642
0.00171789
0.0874143
0.00160651
0.0871781
0.00149589
0.0869555
0.00138574
0.0867465
0.00127575
0.0865511
0.0011656
0.0863693
0.00105495
0.0862011
0.000943445
0.0860464
0.000830682
0.0859055
0.000716232
0.0857782
0.000599624
0.0856648
0.000480332
0.0855653
0.000357776
0.0854798
0.000231302
0.0854083
0.000100175
0.085351
-3.64363e-05
0.0853078
-0.000179475
0.0852788
-0.000330011
0.0852637
-0.000489259
0.0852622
-0.000658593
0.0852737
-0.000839555
0.0852974
-0.00103386
0.0853319
-0.00124336
0.0853752
-0.00147003
0.0854247
-0.00171584
0.0854766
-0.00198261
0.0855262
-0.00227177
0.0855677
-0.00258399
0.0855944
-0.0029187
0.0855993
-0.0032736
0.0855763
-0.00364414
-0.00402334
0.0855211
0.100156
0.000941292
0.100635
0.00285328
0.101422
0.00474013
0.102476
0.00654086
0.103744
0.0082101
0.105163
0.009717
0.10667
0.0110422
0.108203
0.0121761
0.109709
0.0131178
0.111141
0.0138729
0.112463
0.0144516
0.113647
0.0148678
0.114676
0.0151374
0.115542
0.0152774
0.116242
0.015305
0.116778
0.0152368
0.117159
0.0150883
0.117394
0.0148741
0.117495
0.0146067
0.117474
0.0142977
0.117345
0.0139567
0.11712
0.013592
0.11681
0.0132108
0.116428
0.0128189
0.115984
0.0124212
0.115487
0.0120215
0.114946
0.0116232
0.11437
0.0112286
0.113764
0.0108398
0.113135
0.0104584
0.112489
0.0100855
0.11183
0.00972188
0.111162
0.0093682
0.110489
0.00902483
0.109814
0.00869198
0.10914
0.00836972
0.108469
0.00805803
0.107803
0.0077568
0.107144
0.00746584
0.106494
0.00718492
0.105852
0.00691378
0.105221
0.00665211
0.104602
0.0063996
0.103994
0.00615591
0.103399
0.00592071
0.102818
0.00569365
0.102249
0.00547438
0.101695
0.00526256
0.101154
0.00505784
0.100628
0.00485989
0.100115
0.00466838
0.0996174
0.00448299
0.0991337
0.00430339
0.0986643
0.00412927
0.0982092
0.00396034
0.0977683
0.00379629
0.0973415
0.00363683
0.0969287
0.00348168
0.09653
0.00333057
0.0961451
0.00318321
0.095774
0.00303934
0.0954165
0.00289869
0.0950726
0.002761
0.0947422
0.00262601
0.0944251
0.00249345
0.0941213
0.00236307
0.0938308
0.00223459
0.0935533
0.00210775
0.0932889
0.00198229
0.0930375
0.00185791
0.0927991
0.00173433
0.0925736
0.00161125
0.092361
0.00148835
0.0921613
0.00136531
0.0919745
0.00124176
0.0918006
0.00111735
0.0916396
0.000991658
0.0914916
0.00086425
0.0913565
0.000734648
0.0912345
0.000602329
0.0911256
0.000466715
0.0910297
0.000327167
0.0909469
0.000182975
0.0908772
3.3349e-05
0.0908203
-0.000122592
0.0907761
-0.00028583
0.0907443
-0.00045745
0.0907243
-0.00063865
0.0907155
-0.000830736
0.0907168
-0.0010351
0.0907266
-0.00125321
0.0907431
-0.00148652
0.0907637
-0.00173639
0.090785
-0.00200395
0.0908031
-0.0022899
0.0908134
-0.00259424
0.0908106
-0.00291595
0.0907898
-0.00325274
0.0907464
-0.00360074
-0.00395452
0.0906776
0.100124
0.000817591
0.100503
0.00247441
0.101129
0.00411388
0.101978
0.00569163
0.103015
0.00717321
0.104198
0.0085339
0.105483
0.00975697
0.106827
0.0108328
0.108186
0.011758
0.109525
0.012534
0.110811
0.0131659
0.112017
0.0136616
0.113124
0.0140309
0.114116
0.014285
0.114985
0.0144357
0.115727
0.0144948
0.116341
0.0144741
0.116831
0.0143848
0.1172
0.0142374
0.117456
0.0140415
0.117607
0.0138057
0.117662
0.0135377
0.117628
0.0132444
0.117515
0.0129316
0.117332
0.0126045
0.117086
0.0122672
0.116786
0.0119236
0.116438
0.0115765
0.116049
0.0112287
0.115625
0.0108822
0.115172
0.0105386
0.114695
0.0101995
0.114197
0.00986573
0.113684
0.00953829
0.113158
0.00921779
0.112623
0.00890469
0.112081
0.00859934
0.111536
0.00830195
0.11099
0.00801262
0.110443
0.0077314
0.109899
0.00745824
0.109358
0.00719308
0.108821
0.00693578
0.108291
0.00668617
0.107768
0.00644407
0.107252
0.00620926
0.106745
0.00598152
0.106247
0.0057606
0.105759
0.00554627
0.10528
0.00533825
0.104812
0.00513629
0.104355
0.00494013
0.103909
0.0047495
0.103474
0.00456414
0.103051
0.00438379
0.102639
0.00420819
0.102239
0.00403707
0.10185
0.00387017
0.101473
0.00370725
0.101109
0.00354804
0.100756
0.00339229
0.100415
0.00323974
0.100086
0.00309014
0.0997683
0.00294324
0.099463
0.00279877
0.0991696
0.00265648
0.0988881
0.00251611
0.0986184
0.00237738
0.0983607
0.00224002
0.0981148
0.00210376
0.0978809
0.00196829
0.0976588
0.00183332
0.0974486
0.00169852
0.0972504
0.00156357
0.097064
0.0014281
0.0968896
0.00129174
0.0967272
0.00115408
0.0965768
0.00101469
0.0964383
0.000873091
0.0963119
0.000728775
0.0961974
0.00058118
0.0960949
0.000429694
0.0960042
0.000273645
0.0959253
0.000112297
0.0958579
-5.51571e-05
0.0958016
-0.000229596
0.0957561
-0.000411974
0.0957208
-0.000603313
0.0956948
-0.000804693
0.0956769
-0.00101723
0.0956657
-0.00124204
0.0956594
-0.00148016
0.0956555
-0.0017325
0.0956512
-0.00199969
0.0956433
-0.00228193
0.0956278
-0.00257882
0.0956011
-0.00288918
0.0955591
-0.00321082
0.0954989
-0.00354049
-0.0038739
0.0954183
0.1001
0.000717501
0.100406
0.0021685
0.100913
0.00360663
0.101606
0.00499869
0.102461
0.00631815
0.10345
0.00754511
0.104542
0.00866544
0.105704
0.0096703
0.106907
0.0105555
0.10812
0.0113205
0.109318
0.0119676
0.110479
0.0125016
0.111581
0.0129284
0.112611
0.0132554
0.113556
0.0134905
0.114408
0.0136422
0.115164
0.013719
0.115819
0.0137294
0.116375
0.0136814
0.116834
0.0135828
0.117199
0.0134407
0.117474
0.0132619
0.117667
0.0130523
0.117781
0.0128174
0.117823
0.012562
0.1178
0.0122903
0.117718
0.0120061
0.117582
0.0117126
0.117398
0.0114127
0.117171
0.0111086
0.116907
0.0108026
0.116611
0.0104961
0.116286
0.0101908
0.115936
0.00988782
0.115566
0.00958808
0.115178
0.00929242
0.114776
0.00900146
0.114362
0.00871571
0.113939
0.00843554
0.113509
0.00816124
0.113075
0.007893
0.112637
0.00763094
0.112197
0.00737513
0.111758
0.00712556
0.11132
0.00688222
0.110884
0.00664502
0.110452
0.00641387
0.110024
0.00618864
0.109601
0.0059692
0.109184
0.00575536
0.108773
0.00554696
0.108369
0.00534382
0.107973
0.00514572
0.107585
0.00495248
0.107205
0.00476387
0.106833
0.00457968
0.106471
0.0043997
0.106117
0.0042237
0.105773
0.00405146
0.105438
0.00388274
0.105113
0.00371732
0.104798
0.00355496
0.104493
0.00339543
0.104197
0.00323849
0.103912
0.00308389
0.103637
0.00293139
0.103373
0.00278072
0.103118
0.00263164
0.102875
0.00248386
0.102641
0.00233712
0.102418
0.00219112
0.102206
0.00204557
0.102005
0.00190014
0.101814
0.00175452
0.101633
0.00160834
0.101464
0.00146124
0.101305
0.00131281
0.101157
0.00116264
0.10102
0.00101027
0.100894
0.000855191
0.100778
0.000696886
0.100673
0.000534772
0.100578
0.000368228
0.100494
0.000196579
0.10042
1.91012e-05
0.100355
-0.00016498
0.1003
-0.000356487
0.100253
-0.000556275
0.100213
-0.000765222
0.10018
-0.000984199
0.100152