/*--------------------------------*- C++ -*----------------------------------*\
| =========                 |                                                 |
| \\      /  F ield         | OpenFOAM: The Open Source CFD Toolbox           |
|  \\    /   O peration     | Version:  2406                                  |
|   \\  /    A nd           | Website:  www.openfoam.com                      |
|    \\/     M anipulation  |                                                 |
\*---------------------------------------------------------------------------*/
FoamFile
{
    version     2.0;
    format      ascii;
    arch        "LSB;label=32;scalar=64";
    class       volVectorField;
    location    "400";
    object      U;
}
// * * * * * * * * * * * * * * * * * * * * * * * * * * * * * * * * * * * * * //

dimensions      [0 1 -1 0 0 0 0];

internalField   nonuniform List<vector> 
150000
(
(7.94097 0.953544 0)
(6.69751 1.02915 0)
(5.17751 0.578429 0)
(3.9022 0.294371 0)
(3.1115 0.166101 0)
(2.60344 0.0998764 0)
(2.24737 0.062434 0)
(1.98826 0.0414163 0)
(1.79349 0.0293149 0)
(1.64162 0.0219098 0)
(1.5194 0.0170937 0)
(1.41857 0.013792 0)
(1.33374 0.0114206 0)
(1.26122 0.0096478 0)
(1.1984 0.00827887 0)
(1.14339 0.00719399 0)
(1.09477 0.0063161 0)
(1.05148 0.00559349 0)
(1.01265 0.0049902 0)
(0.977635 0.00448044 0)
(0.945885 0.00404523 0)
(0.916966 0.00367029 0)
(0.890516 0.00334468 0)
(0.866234 0.00305988 0)
(0.84387 0.00280916 0)
(0.823209 0.00258716 0)
(0.80407 0.00238952 0)
(0.786297 0.00221272 0)
(0.769754 0.00205384 0)
(0.754324 0.00191048 0)
(0.739906 0.00178061 0)
(0.726409 0.00166255 0)
(0.713755 0.00155486 0)
(0.701873 0.00145631 0)
(0.690702 0.00136586 0)
(0.680186 0.00128261 0)
(0.670275 0.00120579 0)
(0.660926 0.00113472 0)
(0.652098 0.0010688 0)
(0.643755 0.00100753 0)
(0.635865 0.000950446 0)
(0.628397 0.000897146 0)
(0.621326 0.000847277 0)
(0.614627 0.000800521 0)
(0.608278 0.000756597 0)
(0.602258 0.000715252 0)
(0.596548 0.000676257 0)
(0.591132 0.000639409 0)
(0.585994 0.000604522 0)
(0.58112 0.000571426 0)
(0.576496 0.00053997 0)
(0.572112 0.000510012 0)
(0.567954 0.000481425 0)
(0.564014 0.000454088 0)
(0.560282 0.000427893 0)
(0.556749 0.000402738 0)
(0.553409 0.000378527 0)
(0.550252 0.000355172 0)
(0.547274 0.000332588 0)
(0.544468 0.000310695 0)
(0.541828 0.000289417 0)
(0.539351 0.00026868 0)
(0.537031 0.000248413 0)
(0.534866 0.000228546 0)
(0.532851 0.000209011 0)
(0.530984 0.000189737 0)
(0.529263 0.000170657 0)
(0.527685 0.000151698 0)
(0.526251 0.000132789 0)
(0.524958 0.000113852 0)
(0.523806 9.48082e-05 0)
(0.522797 7.5569e-05 0)
(0.52193 5.60418e-05 0)
(0.521208 3.61227e-05 0)
(0.520633 1.5698e-05 0)
(0.520207 -5.36249e-06 0)
(0.519935 -2.72043e-05 0)
(0.519822 -4.99975e-05 0)
(0.519874 -7.39392e-05 0)
(0.520099 -9.9264e-05 0)
(0.520505 -0.000126248 0)
(0.521104 -0.000155226 0)
(0.52191 -0.000186602 0)
(0.522939 -0.00022088 0)
(0.524212 -0.000258691 0)
(0.525752 -0.000300857 0)
(0.527593 -0.000348491 0)
(0.529774 -0.000403211 0)
(0.532349 -0.000467563 0)
(0.53539 -0.000545995 0)
(0.539003 -0.000647005 0)
(0.54335 -0.000787999 0)
(0.548697 -0.00100633 0)
(0.555516 -0.00138626 0)
(0.564692 -0.002129 0)
(0.577886 -0.00371217 0)
(0.598331 -0.00722563 0)
(0.633902 -0.0159591 0)
(0.706889 -0.0467863 0)
(0.821142 -0.172993 0)
(10.2186 1.88712 0)
(10.3826 2.72493 0)
(9.62171 2.24106 0)
(8.49561 1.62032 0)
(7.47677 1.14055 0)
(6.64226 0.808008 0)
(5.96314 0.586463 0)
(5.41237 0.439612 0)
(4.96433 0.340477 0)
(4.59552 0.271574 0)
(4.28748 0.222111 0)
(4.02665 0.185467 0)
(3.80301 0.157535 0)
(3.6091 0.135705 0)
(3.43929 0.118276 0)
(3.28929 0.104105 0)
(3.1558 0.0924029 0)
(3.03619 0.0826102 0)
(2.92839 0.0743205 0)
(2.83072 0.0672322 0)
(2.74183 0.061117 0)
(2.66057 0.0557997 0)
(2.58603 0.0511431 0)
(2.5174 0.0470391 0)
(2.45403 0.043401 0)
(2.39535 0.0401589 0)
(2.34087 0.0372556 0)
(2.29017 0.034644 0)
(2.2429 0.0322852 0)
(2.19873 0.0301465 0)
(2.15738 0.0282005 0)
(2.11862 0.0264239 0)
(2.08222 0.024797 0)
(2.048 0.0233026 0)
(2.01577 0.0219264 0)
(1.9854 0.0206555 0)
(1.95674 0.0194791 0)
(1.92966 0.0183875 0)
(1.90407 0.0173724 0)
(1.87985 0.0164264 0)
(1.85692 0.0155429 0)
(1.8352 0.0147161 0)
(1.8146 0.013941 0)
(1.79507 0.0132128 0)
(1.77653 0.0125276 0)
(1.75893 0.0118816 0)
(1.74222 0.0112715 0)
(1.72635 0.0106942 0)
(1.71128 0.0101471 0)
(1.69697 0.00962766 0)
(1.68337 0.00913361 0)
(1.67045 0.00866287 0)
(1.65819 0.00821355 0)
(1.64655 0.00778389 0)
(1.63551 0.00737227 0)
(1.62504 0.00697716 0)
(1.61512 0.00659717 0)
(1.60573 0.00623098 0)
(1.59685 0.00587733 0)
(1.58847 0.00553506 0)
(1.58056 0.00520303 0)
(1.57311 0.00488018 0)
(1.56612 0.00456546 0)
(1.55957 0.00425786 0)
(1.55345 0.00395639 0)
(1.54775 0.00366006 0)
(1.54246 0.0033679 0)
(1.53758 0.0030789 0)
(1.53311 0.00279204 0)
(1.52905 0.00250628 0)
(1.52538 0.00222051 0)
(1.52211 0.00193355 0)
(1.51924 0.00164414 0)
(1.51679 0.00135091 0)
(1.51474 0.00105234 0)
(1.51311 0.000746737 0)
(1.51191 0.000432167 0)
(1.51115 0.000106427 0)
(1.51085 -0.000233059 0)
(1.51102 -0.000589321 0)
(1.5117 -0.00096599 0)
(1.5129 -0.00136746 0)
(1.51467 -0.00179916 0)
(1.51705 -0.0022679 0)
(1.52009 -0.0027824 0)
(1.52385 -0.00335417 0)
(1.52843 -0.00399891 0)
(1.53392 -0.00473892 0)
(1.54048 -0.00560749 0)
(1.54829 -0.00665716 0)
(1.55761 -0.0079756 0)
(1.56884 -0.00971701 0)
(1.58255 -0.0121649 0)
(1.59966 -0.0158593 0)
(1.62162 -0.0218584 0)
(1.65075 -0.0322603 0)
(1.69086 -0.0511819 0)
(1.74857 -0.0867275 0)
(1.8332 -0.155933 0)
(1.92922 -0.292621 0)
(10.1768 1.34551 0)
(10.7882 2.53793 0)
(10.9413 2.66461 0)
(10.5996 2.36737 0)
(10.0102 1.96114 0)
(9.34907 1.57586 0)
(8.70069 1.25806 0)
(8.1042 1.01152 0)
(7.57307 0.824034 0)
(7.10645 0.681444 0)
(6.69781 0.571957 0)
(6.33938 0.486698 0)
(6.0237 0.419258 0)
(5.74425 0.365074 0)
(5.49549 0.320897 0)
(5.27284 0.284392 0)
(5.07252 0.253861 0)
(4.89141 0.228046 0)
(4.72693 0.206006 0)
(4.57693 0.187026 0)
(4.43963 0.170551 0)
(4.3135 0.156149 0)
(4.19728 0.143478 0)
(4.08986 0.132265 0)
(3.99033 0.122288 0)
(3.89786 0.113368 0)
(3.81178 0.105356 0)
(3.73146 0.0981303 0)
(3.65638 0.0915875 0)
(3.58607 0.085642 0)
(3.52013 0.0802208 0)
(3.45818 0.0752622 0)
(3.39991 0.0707131 0)
(3.34502 0.0665281 0)
(3.29326 0.0626677 0)
(3.2444 0.0590981 0)
(3.19822 0.0557893 0)
(3.15455 0.0527154 0)
(3.1132 0.0498535 0)
(3.07403 0.0471835 0)
(3.0369 0.0446876 0)
(3.00167 0.0423497 0)
(2.96824 0.040156 0)
(2.93649 0.0380937 0)
(2.90632 0.0361515 0)
(2.87766 0.0343191 0)
(2.85041 0.0325876 0)
(2.8245 0.0309484 0)
(2.79987 0.029394 0)
(2.77644 0.0279177 0)
(2.75416 0.026513 0)
(2.73297 0.0251742 0)
(2.71283 0.023896 0)
(2.69369 0.0226736 0)
(2.67551 0.0215024 0)
(2.65824 0.0203782 0)
(2.64185 0.019297 0)
(2.62632 0.0182553 0)
(2.6116 0.0172495 0)
(2.59767 0.0162763 0)
(2.58451 0.0153327 0)
(2.5721 0.0144157 0)
(2.5604 0.0135223 0)
(2.54941 0.0126497 0)
(2.53912 0.0117953 0)
(2.52949 0.0109562 0)
(2.52053 0.0101299 0)
(2.51222 0.00931345 0)
(2.50455 0.00850417 0)
(2.49753 0.00769916 0)
(2.49114 0.00689541 0)
(2.48539 0.00608974 0)
(2.48027 0.00527873 0)
(2.4758 0.00445867 0)
(2.47197 0.00362549 0)
(2.4688 0.00277463 0)
(2.46631 0.00190094 0)
(2.4645 0.000998546 0)
(2.4634 6.05892e-05 0)
(2.46305 -0.000920984 0)
(2.46346 -0.0019558 0)
(2.46469 -0.00305554 0)
(2.46679 -0.0042346 0)
(2.46982 -0.00551105 0)
(2.47385 -0.00690805 0)
(2.47898 -0.00845605 0)
(2.48532 -0.0101962 0)
(2.49304 -0.0121861 0)
(2.50232 -0.0145092 0)
(2.51342 -0.0172916 0)
(2.5267 -0.0207313 0)
(2.54261 -0.0251507 0)
(2.56183 -0.0310908 0)
(2.58527 -0.0394805 0)
(2.61421 -0.0519341 0)
(2.65031 -0.0712482 0)
(2.69554 -0.102146 0)
(2.75173 -0.152313 0)
(2.81772 -0.233441 0)
(2.87691 -0.35707 0)
(10.0798 0.823392 0)
(10.5966 1.94648 0)
(11.0631 2.45325 0)
(11.2348 2.53053 0)
(11.1193 2.36869 0)
(10.8128 2.10343 0)
(10.4014 1.81885 0)
(9.94675 1.5562 0)
(9.48843 1.32962 0)
(9.04824 1.1402 0)
(8.63641 0.983885 0)
(8.25657 0.855255 0)
(7.90875 0.749079 0)
(7.59123 0.660894 0)
(7.30156 0.587091 0)
(7.03706 0.524821 0)
(6.79513 0.471854 0)
(6.57337 0.426444 0)
(6.36963 0.387226 0)
(6.18197 0.35312 0)
(6.00871 0.323269 0)
(5.84837 0.296986 0)
(5.69965 0.273719 0)
(5.5614 0.253014 0)
(5.43263 0.234503 0)
(5.31245 0.217881 0)
(5.2001 0.202894 0)
(5.09488 0.189329 0)
(4.99618 0.177008 0)
(4.90347 0.16578 0)
(4.81626 0.155514 0)
(4.73411 0.146103 0)
(4.65665 0.137449 0)
(4.58351 0.129472 0)
(4.5144 0.1221 0)
(4.44902 0.115271 0)
(4.38712 0.108931 0)
(4.32846 0.103032 0)
(4.27284 0.097533 0)
(4.22006 0.0923956 0)
(4.16994 0.0875873 0)
(4.12232 0.0830787 0)
(4.07706 0.0788436 0)
(4.03402 0.0748583 0)
(3.99308 0.0711017 0)
(3.95411 0.0675549 0)
(3.91702 0.0642004 0)
(3.88171 0.0610228 0)
(3.84809 0.0580077 0)
(3.81607 0.0551422 0)
(3.78559 0.0524145 0)
(3.75656 0.0498136 0)
(3.72893 0.0473295 0)
(3.70263 0.044953 0)
(3.67761 0.0426755 0)
(3.65382 0.040489 0)
(3.63121 0.038386 0)
(3.60973 0.0363596 0)
(3.58935 0.0344031 0)
(3.57004 0.0325104 0)
(3.55174 0.0306755 0)
(3.53444 0.0288926 0)
(3.51811 0.0271565 0)
(3.50273 0.0254616 0)
(3.48827 0.0238028 0)
(3.4747 0.022175 0)
(3.46203 0.020573 0)
(3.45022 0.0189917 0)
(3.43928 0.0174258 0)
(3.42919 0.0158699 0)
(3.41994 0.0143183 0)
(3.41154 0.0127652 0)
(3.40398 0.0112042 0)
(3.39727 0.00962834 0)
(3.39141 0.00803018 0)
(3.38642 0.00640131 0)
(3.38231 0.00473228 0)
(3.3791 0.00301232 0)
(3.37682 0.00122894 0)
(3.3755 -0.000632476 0)
(3.37517 -0.00258937 0)
(3.3759 -0.00466279 0)
(3.37773 -0.00687861 0)
(3.38074 -0.00926911 0)
(3.38502 -0.0118755 0)
(3.39067 -0.0147512 0)
(3.39783 -0.0179677 0)
(3.40668 -0.021623 0)
(3.41741 -0.0258552 0)
(3.43029 -0.0308648 0)
(3.44568 -0.0369519 0)
(3.464 -0.0445763 0)
(3.4858 -0.0544561 0)
(3.51176 -0.0677237 0)
(3.54261 -0.0861617 0)
(3.57903 -0.112518 0)
(3.62119 -0.15082 0)
(3.66793 -0.206442 0)
(3.71473 -0.285093 0)
(3.74968 -0.387727 0)
(10.0426 0.546312 0)
(10.395 1.45866 0)
(10.8535 2.0516 0)
(11.2147 2.33751 0)
(11.3915 2.39309 0)
(11.3903 2.30045 0)
(11.2488 2.12892 0)
(11.0102 1.92723 0)
(10.7131 1.72426 0)
(10.3867 1.53469 0)
(10.0509 1.36456 0)
(9.71859 1.2151 0)
(9.3973 1.0852 0)
(9.09116 0.972779 0)
(8.8021 0.875522 0)
(8.53064 0.791216 0)
(8.27652 0.71789 0)
(8.03903 0.653855 0)
(7.81722 0.597684 0)
(7.61004 0.548187 0)
(7.41643 0.504372 0)
(7.23536 0.465416 0)
(7.06586 0.430633 0)
(6.90702 0.39945 0)
(6.758 0.371387 0)
(6.61802 0.346038 0)
(6.4864 0.323062 0)
(6.36249 0.302168 0)
(6.24571 0.283109 0)
(6.13553 0.265673 0)
(6.03149 0.249677 0)
(5.93313 0.234964 0)
(5.84006 0.221396 0)
(5.75193 0.208854 0)
(5.6684 0.197236 0)
(5.58916 0.186448 0)
(5.51396 0.176412 0)
(5.44253 0.167056 0)
(5.37464 0.158317 0)
(5.31008 0.150139 0)
(5.24866 0.142474 0)
(5.19019 0.135275 0)
(5.13451 0.128504 0)
(5.08147 0.122124 0)
(5.03093 0.116103 0)
(4.98275 0.110412 0)
(4.93682 0.105024 0)
(4.89302 0.0999157 0)
(4.85125 0.0950642 0)
(4.81142 0.0904498 0)
(4.77343 0.086054 0)
(4.73721 0.0818599 0)
(4.70268 0.0778518 0)
(4.66976 0.0740154 0)
(4.6384 0.070337 0)
(4.60852 0.0668043 0)
(4.58009 0.0634056 0)
(4.55303 0.0601299 0)
(4.52731 0.0569668 0)
(4.50288 0.0539066 0)
(4.47971 0.0509399 0)
(4.45774 0.0480577 0)
(4.43696 0.0452514 0)
(4.41733 0.0425127 0)
(4.39883 0.0398334 0)
(4.38142 0.0372054 0)
(4.3651 0.0346206 0)
(4.34984 0.032071 0)
(4.33562 0.0295483 0)
(4.32244 0.0270442 0)
(4.31029 0.0245499 0)
(4.29916 0.0220561 0)
(4.28905 0.0195531 0)
(4.27996 0.0170303 0)
(4.27191 0.0144761 0)
(4.26489 0.0118777 0)
(4.25893 0.00922085 0)
(4.25405 0.00648913 0)
(4.25027 0.00366377 0)
(4.24762 0.000722843 0)
(4.24615 -0.00235964 0)
(4.24591 -0.00561487 0)
(4.24696 -0.0090809 0)
(4.24938 -0.0128049 0)
(4.25324 -0.0168461 0)
(4.25867 -0.0212811 0)
(4.26579 -0.0262096 0)
(4.27476 -0.0317656 0)
(4.28578 -0.0381324 0)
(4.29908 -0.0455665 0)
(4.31495 -0.054434 0)
(4.33369 -0.0652656 0)
(4.35568 -0.0788379 0)
(4.38125 -0.0962864 0)
(4.41063 -0.119247 0)
(4.4437 -0.149989 0)
(4.47958 -0.191424 0)
(4.51603 -0.246731 0)
(4.54845 -0.318037 0)
(4.56918 -0.403127 0)
(10.0236 0.38545 0)
(10.2537 1.09642 0)
(10.6178 1.64938 0)
(10.9919 2.01115 0)
(11.2854 2.19902 0)
(11.4637 2.24873 0)
(11.5247 2.20104 0)
(11.4832 2.09318 0)
(11.3614 1.9539 0)
(11.1819 1.80286 0)
(10.9643 1.6523 0)
(10.7242 1.50914 0)
(10.4729 1.37673 0)
(10.2186 1.2563 0)
(9.96666 1.1478 0)
(9.72082 1.05056 0)
(9.4833 0.963605 0)
(9.2554 0.885876 0)
(9.03775 0.816334 0)
(8.83058 0.754011 0)
(8.63379 0.698036 0)
(8.44713 0.647636 0)
(8.27021 0.602137 0)
(8.1026 0.56095 0)
(7.94382 0.523563 0)
(7.7934 0.489535 0)
(7.65085 0.458481 0)
(7.51573 0.430068 0)
(7.38757 0.404007 0)
(7.26597 0.380044 0)
(7.15053 0.35796 0)
(7.04088 0.337563 0)
(6.93668 0.318681 0)
(6.8376 0.301168 0)
(6.74333 0.28489 0)
(6.65361 0.269733 0)
(6.56817 0.255592 0)
(6.48677 0.242375 0)
(6.40918 0.230002 0)
(6.33521 0.218398 0)
(6.26464 0.207498 0)
(6.19731 0.197243 0)
(6.13305 0.187579 0)
(6.07169 0.178459 0)
(6.0131 0.169839 0)
(5.95714 0.16168 0)
(5.90369 0.153945 0)
(5.85263 0.146601 0)
(5.80384 0.13962 0)
(5.75723 0.132972 0)
(5.71271 0.126633 0)
(5.67018 0.120579 0)
(5.62956 0.114789 0)
(5.59078 0.109243 0)
(5.55376 0.103922 0)
(5.51844 0.0988091 0)
(5.48477 0.0938873 0)
(5.45267 0.0891415 0)
(5.4221 0.0845574 0)
(5.39301 0.0801212 0)
(5.36535 0.0758197 0)
(5.33909 0.0716406 0)
(5.31418 0.0675715 0)
(5.2906 0.0636009 0)
(5.2683 0.0597172 0)
(5.24727 0.0559091 0)
(5.22749 0.0521652 0)
(5.20892 0.0484744 0)
(5.19155 0.0448251 0)
(5.17537 0.0412056 0)
(5.16037 0.0376036 0)
(5.14654 0.0340065 0)
(5.13387 0.0304007 0)
(5.12238 0.0267715 0)
(5.11205 0.0231032 0)
(5.10291 0.0193783 0)
(5.09496 0.0155773 0)
(5.08822 0.0116782 0)
(5.08273 0.00765566 0)
(5.0785 0.00348046 0)
(5.07559 -0.000881845 0)
(5.07403 -0.00547226 0)
(5.07389 -0.0103403 0)
(5.07523 -0.0155468 0)
(5.07815 -0.0211671 0)
(5.08273 -0.0272968 0)
(5.08908 -0.0340584 0)
(5.09736 -0.041612 0)
(5.10771 -0.0501701 0)
(5.1203 -0.0600193 0)
(5.13534 -0.0715505 0)
(5.15301 -0.0853015 0)
(5.17346 -0.102013 0)
(5.19677 -0.122693 0)
(5.22276 -0.14868 0)
(5.25088 -0.181656 0)
(5.27985 -0.223512 0)
(5.30731 -0.275906 0)
(5.32959 -0.339244 0)
(5.3419 -0.410876 0)
(10.0134 0.283912 0)
(10.1646 0.837071 0)
(10.4345 1.31425 0)
(10.7555 1.67858 0)
(11.061 1.92436 0)
(11.3107 2.06194 0)
(11.4852 2.11009 0)
(11.5794 2.091 0)
(11.5989 2.02571 0)
(11.5548 1.93169 0)
(11.4599 1.82216 0)
(11.3269 1.70648 0)
(11.1665 1.59083 0)
(10.9877 1.47904 0)
(10.7977 1.37327 0)
(10.6017 1.27459 0)
(10.4039 1.18334 0)
(10.2071 1.09943 0)
(10.0135 1.02253 0)
(9.8245 0.952172 0)
(9.64104 0.887844 0)
(9.46372 0.829016 0)
(9.29291 0.775178 0)
(9.12876 0.725853 0)
(8.97128 0.6806 0)
(8.82041 0.639018 0)
(8.676 0.600747 0)
(8.53786 0.565462 0)
(8.40578 0.532872 0)
(8.27953 0.502719 0)
(8.15886 0.474772 0)
(8.04355 0.448823 0)
(7.93334 0.42469 0)
(7.828 0.402206 0)
(7.72731 0.381225 0)
(7.63104 0.361615 0)
(7.53899 0.343257 0)
(7.45095 0.326044 0)
(7.36674 0.309882 0)
(7.28617 0.294684 0)
(7.20907 0.280371 0)
(7.13529 0.266872 0)
(7.06467 0.254124 0)
(6.99707 0.242068 0)
(6.93235 0.230651 0)
(6.87038 0.219824 0)
(6.81105 0.209543 0)
(6.75425 0.199767 0)
(6.69986 0.190459 0)
(6.64779 0.181584 0)
(6.59795 0.17311 0)
(6.55024 0.165008 0)
(6.50459 0.157251 0)
(6.46092 0.149813 0)
(6.41917 0.142671 0)
(6.37925 0.135801 0)
(6.34111 0.129184 0)
(6.30469 0.122799 0)
(6.26993 0.116629 0)
(6.23679 0.110654 0)
(6.20523 0.104859 0)
(6.17518 0.0992274 0)
(6.14663 0.0937429 0)
(6.11952 0.0883906 0)
(6.09383 0.0831556 0)
(6.06954 0.0780231 0)
(6.0466 0.0729786 0)
(6.02501 0.0680074 0)
(6.00473 0.0630947 0)
(5.98577 0.0582252 0)
(5.96809 0.0533832 0)
(5.9517 0.0485524 0)
(5.93659 0.0437154 0)
(5.92276 0.0388535 0)
(5.9102 0.0339466 0)
(5.89894 0.0289727 0)
(5.88897 0.0239072 0)
(5.88032 0.0187226 0)
(5.873 0.0133874 0)
(5.86705 0.00786564 0)
(5.8625 0.00211516 0)
(5.85939 -0.00391368 0)
(5.85777 -0.0102802 0)
(5.8577 -0.0170563 0)
(5.85926 -0.0243299 0)
(5.86252 -0.0322101 0)
(5.86757 -0.0408343 0)
(5.87451 -0.0503772 0)
(5.88346 -0.0610635 0)
(5.89452 -0.0731853 0)
(5.90779 -0.0871243 0)
(5.92335 -0.10338 0)
(5.94119 -0.1226 0)
(5.96116 -0.145612 0)
(5.9829 -0.173428 0)
(6.00565 -0.207201 0)
(6.02809 -0.248058 0)
(6.04819 -0.296735 0)
(6.06323 -0.352914 0)
(6.07024 -0.414305 0)
(10.0083 0.218028 0)
(10.1103 0.654693 0)
(10.3067 1.05489 0)
(10.5624 1.38928 0)
(10.8345 1.64633 0)
(11.0904 1.82549 0)
(11.3083 1.93309 0)
(11.4751 1.97996 0)
(11.5859 1.97876 0)
(11.6422 1.94187 0)
(11.6491 1.88017 0)
(11.6138 1.80255 0)
(11.5438 1.71585 0)
(11.4465 1.62509 0)
(11.3283 1.53379 0)
(11.1949 1.44432 0)
(11.0508 1.35818 0)
(10.8998 1.27625 0)
(10.7448 1.19898 0)
(10.5881 1.12652 0)
(10.4315 1.05884 0)
(10.2764 0.995783 0)
(10.1237 0.937124 0)
(9.97419 0.882602 0)
(9.8284 0.831934 0)
(9.68669 0.784842 0)
(9.54929 0.741052 0)
(9.41633 0.700304 0)
(9.28789 0.662353 0)
(9.16395 0.626972 0)
(9.04449 0.593952 0)
(8.92944 0.5631 0)
(8.81869 0.534239 0)
(8.71215 0.507209 0)
(8.6097 0.481861 0)
(8.5112 0.458062 0)
(8.41653 0.43569 0)
(8.32556 0.414633 0)
(8.23815 0.39479 0)
(8.15418 0.376067 0)
(8.07351 0.358379 0)
(7.99603 0.34165 0)
(7.92161 0.325808 0)
(7.85013 0.310788 0)
(7.78149 0.296529 0)
(7.71559 0.282978 0)
(7.6523 0.270083 0)
(7.59155 0.257798 0)
(7.53324 0.246079 0)
(7.47727 0.234887 0)
(7.42357 0.224183 0)
(7.37205 0.213935 0)
(7.32265 0.204108 0)
(7.27528 0.194674 0)
(7.22989 0.185603 0)
(7.1864 0.17687 0)
(7.14477 0.168449 0)
(7.10493 0.160317 0)
(7.06684 0.152451 0)
(7.03043 0.144831 0)
(6.99568 0.137434 0)
(6.96253 0.130242 0)
(6.93095 0.123235 0)
(6.90091 0.116395 0)
(6.87236 0.109704 0)
(6.84528 0.103143 0)
(6.81965 0.0966957 0)
(6.79545 0.0903428 0)
(6.77264 0.0840666 0)
(6.75122 0.0778486 0)
(6.73117 0.0716696 0)
(6.71248 0.0655096 0)
(6.69515 0.0593477 0)
(6.67917 0.0531614 0)
(6.66454 0.0469265 0)
(6.65127 0.0406165 0)
(6.63936 0.0342024 0)
(6.62884 0.0276515 0)
(6.61971 0.0209271 0)
(6.612 0.0139871 0)
(6.60574 0.0067832 0)
(6.60097 -0.000741353 0)
(6.59772 -0.00865334 0)
(6.59604 -0.0170325 0)
(6.59599 -0.0259749 0)
(6.59762 -0.0355977 0)
(6.60099 -0.0460447 0)
(6.60617 -0.0574942 0)
(6.61323 -0.0701687 0)
(6.62221 -0.084347 0)
(6.63313 -0.100379 0)
(6.64596 -0.118698 0)
(6.6606 -0.139842 0)
(6.67677 -0.164445 0)
(6.69401 -0.193231 0)
(6.71154 -0.22694 0)
(6.72817 -0.266184 0)
(6.74229 -0.311181 0)
(6.75196 -0.361366 0)
(6.75528 -0.414939 0)
(10.0055 0.173547 0)
(10.0768 0.525097 0)
(10.2204 0.858708 0)
(10.4186 1.15343 0)
(10.6449 1.3982 0)
(10.8768 1.58889 0)
(11.096 1.72605 0)
(11.2886 1.81389 0)
(11.4457 1.85891 0)
(11.5633 1.86863 0)
(11.6409 1.8506 0)
(11.6806 1.81175 0)
(11.6862 1.75806 0)
(11.6621 1.69445 0)
(11.613 1.6248 0)
(11.5433 1.55206 0)
(11.4571 1.47843 0)
(11.3581 1.40545 0)
(11.2494 1.33423 0)
(11.1336 1.26546 0)
(11.0129 1.19959 0)
(10.889 1.13687 0)
(10.7635 1.07739 0)
(10.6375 1.02116 0)
(10.512 0.968117 0)
(10.3876 0.918149 0)
(10.265 0.871121 0)
(10.1446 0.826881 0)
(10.0268 0.785271 0)
(9.91167 0.746131 0)
(9.79954 0.709303 0)
(9.69048 0.674637 0)
(9.58458 0.641986 0)
(9.48187 0.611212 0)
(9.38236 0.582188 0)
(9.28603 0.554791 0)
(9.19286 0.528909 0)
(9.10279 0.504436 0)
(9.01578 0.481274 0)
(8.93177 0.459334 0)
(8.85067 0.43853 0)
(8.77243 0.418785 0)
(8.69696 0.400026 0)
(8.6242 0.382187 0)
(8.55407 0.365204 0)
(8.48648 0.349021 0)
(8.42137 0.333583 0)
(8.35867 0.31884 0)
(8.2983 0.304746 0)
(8.24019 0.291257 0)
(8.18428 0.278332 0)
(8.1305 0.265934 0)
(8.07879 0.254027 0)
(8.02909 0.242576 0)
(7.98135 0.231551 0)
(7.9355 0.220922 0)
(7.89151 0.21066 0)
(7.84931 0.200738 0)
(7.80886 0.191131 0)
(7.77013 0.181814 0)
(7.73306 0.172763 0)
(7.69763 0.163957 0)
(7.66379 0.155371 0)
(7.63152 0.146986 0)
(7.60078 0.13878 0)
(7.57155 0.130732 0)
(7.5438 0.122821 0)
(7.51751 0.115026 0)
(7.49266 0.107326 0)
(7.46923 0.0996992 0)
(7.44722 0.0921237 0)
(7.42661 0.0845761 0)
(7.40739 0.0770319 0)
(7.38957 0.0694654 0)
(7.37313 0.0618486 0)
(7.35809 0.0541513 0)
(7.34444 0.0463403 0)
(7.33221 0.0383789 0)
(7.32139 0.0302259 0)
(7.31201 0.0218345 0)
(7.3041 0.0131514 0)
(7.29767 0.00411502 0)
(7.29276 -0.00534639 0)
(7.2894 -0.0153172 0)
(7.28762 -0.0258973 0)
(7.28747 -0.0372062 0)
(7.28897 -0.0493871 0)
(7.29216 -0.0626133 0)
(7.29706 -0.077094 0)
(7.30366 -0.0930826 0)
(7.31193 -0.110884 0)
(7.32177 -0.130859 0)
(7.33299 -0.153429 0)
(7.34527 -0.179064 0)
(7.35814 -0.20825 0)
(7.37086 -0.241432 0)
(7.38245 -0.278894 0)
(7.39166 -0.320588 0)
(7.39714 -0.365907 0)
(7.39764 -0.413485 0)
(10.004 0.142091 0)
(10.0556 0.430854 0)
(10.1623 0.710352 0)
(10.3152 0.966129 0)
(10.4981 1.18923 0)
(10.6963 1.375 0)
(10.8964 1.52182 0)
(11.0867 1.63064 0)
(11.2583 1.7043 0)
(11.405 1.74683 0)
(11.5235 1.7629 0)
(11.6125 1.75723 0)
(11.6726 1.73435 0)
(11.7056 1.6983 0)
(11.714 1.6526 0)
(11.7006 1.60014 0)
(11.6683 1.5433 0)
(11.6201 1.48394 0)
(11.5586 1.42349 0)
(11.4863 1.36304 0)
(11.4053 1.3034 0)
(11.3174 1.24512 0)
(11.2244 1.18862 0)
(11.1276 1.13414 0)
(11.0282 1.08185 0)
(10.9271 1.03182 0)
(10.8252 0.984072 0)
(10.7232 0.938589 0)
(10.6216 0.895323 0)
(10.5208 0.854203 0)
(10.4213 0.815147 0)
(10.3233 0.778066 0)
(10.2271 0.742863 0)
(10.1328 0.709444 0)
(10.0406 0.677713 0)
(9.95057 0.647574 0)
(9.86281 0.618939 0)
(9.77737 0.591717 0)
(9.69427 0.565827 0)
(9.61353 0.541188 0)
(9.53515 0.517725 0)
(9.45911 0.495365 0)
(9.3854 0.474043 0)
(9.31399 0.453693 0)
(9.24485 0.434257 0)
(9.17794 0.415677 0)
(9.11323 0.397902 0)
(9.05067 0.38088 0)
(8.99022 0.364564 0)
(8.93184 0.348911 0)
(8.87549 0.333879 0)
(8.82111 0.319428 0)
(8.76867 0.305521 0)
(8.71813 0.292122 0)
(8.66943 0.279198 0)
(8.62255 0.266717 0)
(8.57744 0.254648 0)
(8.53407 0.242963 0)
(8.49239 0.231634 0)
(8.45237 0.220633 0)
(8.41399 0.209935 0)
(8.3772 0.199516 0)
(8.34199 0.189349 0)
(8.30831 0.179412 0)
(8.27616 0.16968 0)
(8.24549 0.160131 0)
(8.21631 0.150741 0)
(8.18857 0.141486 0)
(8.16228 0.132344 0)
(8.13741 0.123288 0)
(8.11395 0.114296 0)
(8.09189 0.10534 0)
(8.07124 0.096393 0)
(8.05197 0.0874268 0)
(8.03409 0.0784102 0)
(8.01761 0.0693098 0)
(8.00252 0.0600893 0)
(7.98883 0.0507085 0)
(7.97656 0.0411228 0)
(7.96571 0.0312823 0)
(7.9563 0.0211304 0)
(7.94834 0.0106025 0)
(7.94186 -0.000375554 0)
(7.93687 -0.0118897 0)
(7.9334 -0.0240398 0)
(7.93146 -0.036943 0)
(7.93106 -0.0507366 0)
(7.9322 -0.0655822 0)
(7.93486 -0.0816693 0)
(7.93901 -0.0992194 0)
(7.94456 -0.118488 0)
(7.95137 -0.139765 0)
(7.95922 -0.163368 0)
(7.96779 -0.189628 0)
(7.9766 -0.218858 0)
(7.98504 -0.251298 0)
(7.9923 -0.287037 0)
(7.99745 -0.325898 0)
(7.99952 -0.36732 0)
(7.99769 -0.410267 0)
(10.003 0.118929 0)
(10.0416 0.360535 0)
(10.1226 0.596995 0)
(10.2414 0.818326 0)
(10.388 1.01769 0)
(10.5529 1.19096 0)
(10.7269 1.33597 0)
(10.9013 1.45229 0)
(11.0684 1.54086 0)
(11.2222 1.60365 0)
(11.3583 1.64325 0)
(11.4741 1.66265 0)
(11.5681 1.66492 0)
(11.6402 1.65304 0)
(11.6909 1.6298 0)
(11.7217 1.59768 0)
(11.7341 1.55885 0)
(11.73 1.51513 0)
(11.7113 1.46803 0)
(11.68 1.41881 0)
(11.6378 1.36844 0)
(11.5863 1.31771 0)
(11.5272 1.26721 0)
(11.4618 1.2174 0)
(11.3913 1.16862 0)
(11.3168 1.12111 0)
(11.2393 1.07505 0)
(11.1594 1.03054 0)
(11.078 0.987652 0)
(10.9955 0.946412 0)
(10.9126 0.906823 0)
(10.8296 0.868867 0)
(10.747 0.83251 0)
(10.6649 0.79771 0)
(10.5837 0.764414 0)
(10.5036 0.732568 0)
(10.4247 0.702111 0)
(10.3472 0.672983 0)
(10.2712 0.645123 0)
(10.1967 0.618469 0)
(10.124 0.592962 0)
(10.0529 0.568543 0)
(9.98364 0.545156 0)
(9.91612 0.522745 0)
(9.85039 0.501259 0)
(9.78646 0.480647 0)
(9.72433 0.46086 0)
(9.664 0.441851 0)
(9.60546 0.423578 0)
(9.54869 0.405997 0)
(9.49369 0.389068 0)
(9.44042 0.372754 0)
(9.38887 0.357015 0)
(9.33901 0.341819 0)
(9.29083 0.327131 0)
(9.2443 0.312918 0)
(9.1994 0.29915 0)
(9.15609 0.285796 0)
(9.11437 0.272828 0)
(9.0742 0.260218 0)
(9.03556 0.247939 0)
(8.99843 0.235963 0)
(8.96279 0.224265 0)
(8.92862 0.21282 0)
(8.89591 0.201602 0)
(8.86463 0.190585 0)
(8.83477 0.179746 0)
(8.80632 0.169057 0)
(8.77926 0.158495 0)
(8.75358 0.148031 0)
(8.72928 0.13764 0)
(8.70634 0.127293 0)
(8.68476 0.116961 0)
(8.66455 0.106612 0)
(8.64569 0.0962128 0)
(8.62818 0.0857283 0)
(8.61204 0.0751195 0)
(8.59725 0.064344 0)
(8.58384 0.0533551 0)
(8.57181 0.0421007 0)
(8.56116 0.0305228 0)
(8.5519 0.0185557 0)
(8.54405 0.00612493 0)
(8.53761 -0.00685411 0)
(8.53259 -0.0204784 0)
(8.52898 -0.0348591 0)
(8.52677 -0.0501238 0)
(8.52595 -0.0664184 0)
(8.52647 -0.0839095 0)
(8.52826 -0.102784 0)
(8.5312 -0.123251 0)
(8.53515 -0.145534 0)
(8.53986 -0.169866 0)
(8.54503 -0.196469 0)
(8.55023 -0.22553 0)
(8.55494 -0.257158 0)
(8.55852 -0.291328 0)
(8.56028 -0.327813 0)
(8.55952 -0.366121 0)
(8.55569 -0.405463 0)
(10.0023 0.101292 0)
(10.0321 0.306719 0)
(10.095 0.509016 0)
(10.1884 0.701168 0)
(10.3062 0.87804 0)
(10.4421 1.03623 0)
(10.59 1.17366 0)
(10.7435 1.28943 0)
(10.8968 1.38362 0)
(11.0448 1.45705 0)
(11.1833 1.51111 0)
(11.3091 1.54754 0)
(11.4202 1.56831 0)
(11.5151 1.57546 0)
(11.5933 1.57103 0)
(11.655 1.55694 0)
(11.7007 1.53496 0)
(11.7312 1.50668 0)
(11.7477 1.47349 0)
(11.7514 1.4366 0)
(11.7435 1.39703 0)
(11.7255 1.35563 0)
(11.6984 1.3131 0)
(11.6636 1.27001 0)
(11.622 1.22682 0)
(11.5747 1.18389 0)
(11.5227 1.14151 0)
(11.4666 1.09989 0)
(11.4073 1.0592 0)
(11.3455 1.01956 0)
(11.2816 0.981049 0)
(11.2162 0.94372 0)
(11.1497 0.907605 0)
(11.0826 0.872716 0)
(11.0152 0.839052 0)
(10.9477 0.806599 0)
(10.8804 0.775334 0)
(10.8135 0.745231 0)
(10.7472 0.716256 0)
(10.6817 0.688372 0)
(10.617 0.66154 0)
(10.5534 0.635721 0)
(10.4909 0.610872 0)
(10.4295 0.586953 0)
(10.3694 0.563922 0)
(10.3105 0.541739 0)
(10.253 0.520363 0)
(10.1969 0.499755 0)
(10.1421 0.479876 0)
(10.0887 0.46069 0)
(10.0368 0.44216 0)
(9.98628 0.424251 0)
(9.9372 0.406929 0)
(9.88954 0.390161 0)
(9.84332 0.373914 0)
(9.79852 0.358158 0)
(9.75514 0.342863 0)
(9.71316 0.327998 0)
(9.67259 0.313535 0)
(9.63341 0.299448 0)
(9.59561 0.285706 0)
(9.55918 0.272285 0)
(9.52412 0.259158 0)
(9.49041 0.246297 0)
(9.45803 0.233678 0)
(9.42699 0.221273 0)
(9.39728 0.209057 0)
(9.36888 0.197003 0)
(9.34179 0.185084 0)
(9.316 0.173273 0)
(9.29151 0.16154 0)
(9.26831 0.149856 0)
(9.24641 0.13819 0)
(9.22579 0.126509 0)
(9.20647 0.11478 0)
(9.18843 0.102963 0)
(9.17168 0.0910197 0)
(9.15623 0.0789059 0)
(9.14208 0.0665738 0)
(9.12923 0.0539708 0)
(9.11768 0.0410386 0)
(9.10744 0.0277122 0)
(9.09851 0.013919 0)
(9.09088 -0.000422485 0)
(9.08455 -0.0154038 0)
(9.0795 -0.0311278 0)
(9.07571 -0.0477099 0)
(9.07314 -0.0652787 0)
(9.07172 -0.0839765 0)
(9.07137 -0.103958 0)
(9.07196 -0.125388 0)
(9.07333 -0.148435 0)
(9.07526 -0.173263 0)
(9.07744 -0.200014 0)
(9.07952 -0.228787 0)
(9.08106 -0.259607 0)
(9.08156 -0.292389 0)
(9.08051 -0.326896 0)
(9.0774 -0.362709 0)
(9.07185 -0.399218 0)
(10.0018 0.087483 0)
(10.0254 0.264545 0)
(10.0752 0.43952 0)
(10.1499 0.607351 0)
(10.2453 0.764162 0)
(10.3574 0.907216 0)
(10.4819 1.03471 0)
(10.6144 1.14565 0)
(10.7506 1.23977 0)
(10.8864 1.31732 0)
(11.0184 1.37901 0)
(11.1436 1.42583 0)
(11.2597 1.45901 0)
(11.3649 1.47988 0)
(11.4582 1.48986 0)
(11.5388 1.49033 0)
(11.6066 1.48265 0)
(11.6617 1.4681 0)
(11.7045 1.44784 0)
(11.7356 1.42293 0)
(11.7557 1.39431 0)
(11.7658 1.36279 0)
(11.7666 1.32909 0)
(11.759 1.29381 0)
(11.744 1.25745 0)
(11.7224 1.22045 0)
(11.6949 1.18316 0)
(11.6623 1.14587 0)
(11.6253 1.1088 0)
(11.5845 1.07216 0)
(11.5405 1.03608 0)
(11.4939 1.00069 0)
(11.445 0.966071 0)
(11.3944 0.932284 0)
(11.3423 0.899376 0)
(11.2892 0.867376 0)
(11.2353 0.836301 0)
(11.181 0.806155 0)
(11.1263 0.776937 0)
(11.0716 0.748636 0)
(11.017 0.721237 0)
(10.9627 0.694722 0)
(10.9088 0.669067 0)
(10.8555 0.644248 0)
(10.8028 0.620237 0)
(10.7508 0.597007 0)
(10.6996 0.574528 0)
(10.6494 0.55277 0)
(10.6 0.531705 0)
(10.5517 0.5113 0)
(10.5044 0.491527 0)
(10.4581 0.472356 0)
(10.4129 0.453758 0)
(10.3689 0.435702 0)
(10.326 0.418162 0)
(10.2842 0.401107 0)
(10.2436 0.384511 0)
(10.2041 0.368346 0)
(10.1659 0.352585 0)
(10.1288 0.337201 0)
(10.0929 0.322168 0)
(10.0582 0.307459 0)
(10.0247 0.293048 0)
(9.99239 0.27891 0)
(9.96127 0.265017 0)
(9.93133 0.251345 0)
(9.90258 0.237865 0)
(9.87503 0.224552 0)
(9.84866 0.211378 0)
(9.82348 0.198313 0)
(9.79949 0.18533 0)
(9.77669 0.172398 0)
(9.75507 0.159485 0)
(9.73465 0.146557 0)
(9.71542 0.133579 0)
(9.69739 0.120513 0)
(9.68054 0.107318 0)
(9.6649 0.0939511 0)
(9.65046 0.0803636 0)
(9.63721 0.0665037 0)
(9.62517 0.0523142 0)
(9.61432 0.0377322 0)
(9.60466 0.0226885 0)
(9.59618 0.00710641 0)
(9.58887 -0.00909871 0)
(9.58269 -0.02602 0)
(9.57762 -0.0437595 0)
(9.5736 -0.0624281 0)
(9.57055 -0.0821447 0)
(9.56839 -0.103034 0)
(9.56697 -0.125223 0)
(9.56615 -0.148836 0)
(9.5657 -0.173981 0)
(9.56536 -0.200744 0)
(9.56484 -0.229163 0)
(9.56377 -0.259215 0)
(9.56176 -0.290784 0)
(9.55841 -0.323643 0)
(9.55338 -0.357439 0)
(9.54638 -0.391693 0)
(10.0015 0.0764158 0)
(10.0206 0.230787 0)
(10.0608 0.383649 0)
(10.1214 0.531262 0)
(10.1995 0.670655 0)
(10.2925 0.799635 0)
(10.3973 0.916671 0)
(10.5108 1.02084 0)
(10.6298 1.11172 0)
(10.7513 1.18934 0)
(10.8726 1.25402 0)
(10.991 1.30633 0)
(11.1046 1.34703 0)
(11.2116 1.37699 0)
(11.3106 1.39717 0)
(11.4006 1.40854 0)
(11.4811 1.4121 0)
(11.5516 1.40881 0)
(11.6122 1.3996 0)
(11.6628 1.38534 0)
(11.7039 1.36681 0)
(11.7358 1.34475 0)
(11.7591 1.3198 0)
(11.7742 1.29253 0)
(11.7819 1.26346 0)
(11.7828 1.23302 0)
(11.7773 1.20158 0)
(11.7662 1.16947 0)
(11.7501 1.13697 0)
(11.7295 1.10431 0)
(11.7048 1.07168 0)
(11.6767 1.03923 0)
(11.6455 1.00711 0)
(11.6117 0.975407 0)
(11.5756 0.944214 0)
(11.5376 0.913594 0)
(11.498 0.883598 0)
(11.4572 0.854263 0)
(11.4153 0.825614 0)
(11.3726 0.797669 0)
(11.3293 0.770437 0)
(11.2856 0.743918 0)
(11.2417 0.718111 0)
(11.1978 0.693007 0)
(11.1539 0.668597 0)
(11.1101 0.644864 0)
(11.0667 0.621794 0)
(11.0237 0.599368 0)
(10.9811 0.577565 0)
(10.9391 0.556365 0)
(10.8977 0.535745 0)
(10.8569 0.515683 0)
(10.8169 0.496155 0)
(10.7777 0.477138 0)
(10.7393 0.458609 0)
(10.7017 0.440542 0)
(10.665 0.422913 0)
(10.6292 0.405699 0)