/*--------------------------------*- C++ -*----------------------------------*\
| =========                 |                                                 |
| \\      /  F ield         | OpenFOAM: The Open Source CFD Toolbox           |
|  \\    /   O peration     | Version:  2406                                  |
|   \\  /    A nd           | Website:  www.openfoam.com                      |
|    \\/     M anipulation  |                                                 |
\*---------------------------------------------------------------------------*/
FoamFile
{
    version     2.0;
    format      ascii;
    arch        "LSB;label=32;scalar=64";
    class       volScalarField;
    location    "750";
    object      p;
}
// * * * * * * * * * * * * * * * * * * * * * * * * * * * * * * * * * * * * * //

dimensions      [0 2 -2 0 0 0 0];

internalField   nonuniform List<scalar> 
150000
(
238.36
131.22
74.2309
50.9434
37.589
28.7763
23.0086
19.0349
16.0868
13.7791
11.9037
10.3343
8.99026
7.81841
6.78183
5.85392
5.0149
4.24962
3.54629
2.89552
2.28976
1.72283
1.18962
0.685858
0.20797
-0.247094
-0.681939
-1.09881
-1.49964
-1.88612
-2.25974
-2.62179
-2.97343
-3.31567
-3.64942
-3.97549
-4.29463
-4.60747
-4.91461
-5.2166
-5.51391
-5.807
-6.09627
-6.3821
-6.66483
-6.94478
-7.22224
-7.49748
-7.77076
-8.04232
-8.31238
-8.58114
-8.84881
-9.11557
-9.3816
-9.64708
-9.91216
-10.177
-10.4418
-10.7066
-10.9716
-11.237
-11.5029
-11.7694
-12.0367
-12.3049
-12.5741
-12.8446
-13.1164
-13.3896
-13.6646
-13.9413
-14.22
-14.5009
-14.7841
-15.0698
-15.3583
-15.6497
-15.9443
-16.2424
-16.5443
-16.8502
-17.1605
-17.4757
-17.796
-18.122
-18.4542
-18.7931
-19.1395
-19.494
-19.8575
-20.2309
-20.6155
-21.0135
-21.4297
-21.8763
-22.3785
-22.9606
-23.6933
-25.5078
137.526
97.8998
68.3059
51.7252
40.3087
31.8608
25.8211
21.4326
18.0957
15.4628
13.3258
11.5481
10.0376
8.73135
7.58494
6.56621
5.6512
4.82168
4.06348
3.36546
2.71867
2.11586
1.55106
1.01934
0.516567
0.0392375
-0.415615
-0.850538
-1.26772
-1.66908
-2.05626
-2.43073
-2.79375
-3.14648
-3.48991
-3.82493
-4.15236
-4.47292
-4.78724
-5.09593
-5.39951
-5.69847
-5.99325
-6.28425
-6.57186
-6.85641
-7.13821
-7.41757
-7.69475
-7.97001
-8.24358
-8.5157
-8.78657
-9.05639
-9.32535
-9.59364
-9.86141
-10.1289
-10.3961
-10.6634
-10.9307
-11.1984
-11.4665
-11.7351
-12.0045
-12.2748
-12.5461
-12.8185
-13.0923
-13.3675
-13.6444
-13.923
-14.2037
-14.4865
-14.7717
-15.0595
-15.35
-15.6436
-15.9404
-16.2409
-16.5451
-16.8536
-17.1667
-17.4848
-17.8084
-18.138
-18.4743
-18.818
-19.1699
-19.5312
-19.9031
-20.2874
-20.6865
-21.104
-21.5462
-22.0238
-22.5539
-23.1622
-23.9492
-25.2678
89.0009
77.7685
63.1201
50.9777
41.3651
33.7388
27.8629
23.3489
19.8069
16.9644
14.6378
12.6966
11.0479
9.6253
8.38086
7.27907
6.29321
5.40283
4.59201
3.84816
3.16121
2.523
1.92684
1.36718
0.839397
0.339592
-0.135545
-0.588843
-1.02274
-1.43933
-1.84045
-2.22771
-2.60251
-2.96609
-3.31956
-3.66389
-3.99997
-4.32857
-4.6504
-4.9661
-5.27625
-5.58137
-5.88193
-6.17839
-6.47113
-6.76052
-7.04691
-7.3306
-7.6119
-7.89107
-8.16837
-8.44403
-8.71828
-8.99134
-9.26339
-9.53464
-9.80527
-10.0755
-10.3454
-10.6151
-10.885
-11.155
-11.4254
-11.6964
-11.9679
-12.2404
-12.5137
-12.7882
-13.064
-13.3413
-13.6202
-13.9008
-14.1835
-14.4683
-14.7555
-15.0453
-15.3379
-15.6336
-15.9326
-16.2353
-16.5419
-16.8529
-17.1686
-17.4895
-17.8161
-18.1491
-18.4891
-18.8369
-19.1938
-19.5608
-19.9397
-20.3327
-20.7427
-21.1738
-21.6319
-22.1252
-22.6636
-23.2569
-23.9245
-24.695
68.3665
64.7219
56.4991
47.7323
40.1518
33.7819
28.532
24.2679
20.7952
17.9364
15.5541
13.5428
11.8221
10.331
9.02388
7.86569
6.82951
5.89437
5.04375
4.26446
3.54588
2.87935
2.25775
1.67517
1.12667
0.60808
0.115855
-0.353032
-0.801186
-1.23086
-1.64402
-2.04237
-2.42741
-2.80049
-3.16277
-3.5153
-3.859
-4.19473
-4.52323
-4.84517
-5.16118
-5.4718
-5.77755
-6.07889
-6.37624
-6.66999
-6.9605
-7.24811
-7.53312
-7.81582
-8.09647
-8.37533
-8.65264
-8.92861
-9.20345
-9.47738
-9.75057
-10.0232
-10.2955
-10.5676
-10.8396
-11.1118
-11.3842
-11.6572
-11.9307
-12.205
-12.4802
-12.7565
-13.0341
-13.3131
-13.5937
-13.876
-14.1603
-14.4468
-14.7356
-15.0271
-15.3213
-15.6186
-15.9193
-16.2237
-16.5321
-16.8448
-17.1623
-17.4851
-17.8137
-18.1487
-18.4909
-18.8411
-19.2004
-19.5701
-19.9517
-20.3472
-20.7591
-21.1904
-21.6443
-22.1239
-22.6299
-23.1563
-23.6839
-24.1697
55.7139
54.3844
49.7221
43.7637
38.0696
32.9449
28.4473
24.5965
21.3348
18.5704
16.2158
14.1958
12.4479
10.9214
9.57602
8.37975
7.30718
6.33803
5.45601
4.64793
3.90304
3.2125
2.56901
1.96644
1.39966
0.864336
0.356762
-0.126231
-0.587374
-1.02903
-1.45327
-1.86188
-2.25645
-2.63838
-3.0089
-3.36912
-3.72001
-4.06247
-4.39727
-4.72513
-5.0467
-5.36256
-5.67325
-5.97924
-6.28099
-6.57891
-6.87337
-7.16472
-7.45329
-7.73936
-8.02323
-8.30516
-8.58538
-8.86414
-9.14165
-9.41812
-9.69375
-9.96874
-10.2433
-10.5175
-10.7916
-11.0658
-11.3402
-11.6149
-11.8903
-12.1663
-12.4432
-12.7211
-13.0003
-13.2808
-13.5628
-13.8466
-14.1324
-14.4202
-14.7104
-15.0031
-15.2987
-15.5973
-15.8992
-16.2047
-16.5142
-16.828
-17.1466
-17.4704
-17.7999
-18.1357
-18.4785
-18.8291
-19.1884
-19.5574
-19.9375
-20.33
-20.7361
-21.1572
-21.5936
-22.0436
-22.5013
-22.9524
-23.3691
-23.7043
47.0147
46.5659
43.8977
39.9046
35.6899
31.6347
27.8762
24.5016
21.5304
18.9344
16.6695
14.69
12.9527
11.4193
10.0572
8.83911
7.74247
6.74871
5.84254
5.0113
4.24452
3.53348
2.87088
2.25056
1.66733
1.11675
0.595043
0.0989477
-0.374352
-0.827302
-1.26203
-1.68042
-2.0841
-2.47454
-2.85301
-3.22067
-3.57853
-3.92753
-4.26848
-4.60212
-4.92913
-5.25013
-5.56566
-5.87623
-6.18232
-6.48433
-6.78268
-7.07772
-7.36978
-7.65918
-7.94621
-8.23115
-8.51424
-8.79573
-9.07585
-9.35481
-9.63282
-9.91008
-10.1868
-10.4631
-10.7392
-11.0153
-11.2915
-11.568
-11.845
-12.1226
-12.4011
-12.6805
-12.9611
-13.2429
-13.5263
-13.8113
-14.0982
-14.3872
-14.6784
-14.9721
-15.2685
-15.5679
-15.8706
-16.1768
-16.4868
-16.801
-17.1198
-17.4436
-17.7728
-18.108
-18.4498
-18.7987
-19.1555
-19.5209
-19.8955
-20.28
-20.6745
-21.0785
-21.4899
-21.9041
-22.3116
-22.6959
-23.0306
-23.278
40.8307
40.7025
39.0871
36.3553
33.231
30.0489
26.9593
24.0668
21.4264
19.049
16.9228
15.0266
13.3353
11.8231
10.4663
9.2434
8.13588
7.12771
6.20526
5.35699
4.57311
3.84531
3.16655
2.53082
1.93298
1.36863
0.83398
0.325734
-0.158957
-0.622581
-1.06732
-1.49507
-1.90755
-2.30623
-2.69244
-3.06737
-3.43208
-3.78752
-4.13453
-4.47389
-4.80631
-5.1324
-5.45275
-5.76788
-6.07828
-6.38439
-6.68661
-6.98532
-7.28088
-7.5736
-7.86378
-8.15171
-8.43766
-8.72186
-9.00457
-9.28599
-9.56634
-9.84583
-10.1246
-10.403
-10.681
-10.9589
-11.2369
-11.5151
-11.7936
-12.0728
-12.3526
-12.6333
-12.9151
-13.1982
-13.4826
-13.7686
-14.0564
-14.3462
-14.6382
-14.9325
-15.2294
-15.5292
-15.8321
-16.1383
-16.4482
-16.762
-17.0801
-17.4029
-17.7307
-18.0639
-18.4029
-18.7482
-19.1002
-19.459
-19.8249
-20.1976
-20.5763
-20.9591
-21.3423
-21.7196
-22.0807
-22.4098
-22.6851
-22.8792
36.1834
36.1542
35.1058
33.183
30.8468
28.3519
25.8317
23.3859
21.08
18.9449
16.989
15.2086
13.593
12.1278
10.7978
9.58773
8.48341
7.47203
6.5422
5.68393
4.88848
4.14831
3.45687
2.80847
2.19821
1.62183
1.0756
0.556285
0.0610611
-0.41256
-0.866765
-1.30348
-1.72442
-2.13111
-2.52488
-2.90696
-3.27841
-3.64022
-3.99327
-4.33833
-4.67614
-5.00734
-5.33253
-5.65225
-5.96699
-6.27722
-6.58336
-6.88578
-7.18486
-7.48093
-7.77429
-8.06524
-8.35405
-8.64098
-8.92627
-9.21015
-9.49283
-9.77453
-10.0554
-10.3358
-10.6157
-10.8954
-11.175
-11.4547
-11.7348
-12.0153
-12.2964
-12.5783
-12.8612
-13.1452
-13.4305
-13.7173
-14.0058
-14.296
-14.5884
-14.8829
-15.1799
-15.4796
-15.7822
-16.0878
-16.3969
-16.7096
-17.0261
-17.3469
-17.672
-18.0019
-18.3366
-18.6765
-19.0215
-19.3716
-19.7263
-20.0846
-20.4451
-20.8049
-21.1594
-21.5019
-21.8225
-22.1075
-22.3399
-22.5009
32.5184
32.5145
31.7914
30.3968
28.6244
26.6567
24.602
22.5467
20.5541
18.6623
16.8903
15.2454
13.7272
12.3301
11.0459
9.8652
8.77818
7.77537
6.84786
5.98751
5.18696
4.43965
3.73974
3.08209
2.46216
1.87594
1.31991
0.790951
0.286331
-0.196383
-0.659343
-1.10446
-1.53343
-1.94778
-2.34886
-2.73789
-3.11596
-3.48406
-3.84308
-4.19382
-4.53702
-4.87335
-5.2034
-5.52774
-5.84688
-6.16128
-6.47138
-6.77757
-7.08022
-7.37968
-7.67627
-7.97028
-8.262
-8.55168
-8.83958
-9.12593
-9.41095
-9.69486
-9.97786
-10.2601
-10.5419
-10.8233
-11.1046
-11.3858
-11.6672
-11.949
-12.2313
-12.5142
-12.798
-13.0828
-13.3688
-13.6561
-13.9449
-14.2355
-14.5278
-14.8223
-15.1189
-15.418
-15.7197
-16.0243
-16.3318
-16.6425
-16.9567
-17.2744
-17.5959
-17.9211
-18.2503
-18.5832
-18.9198
-19.2594
-19.6012
-19.9438
-20.285
-20.6216
-20.9489
-21.2601
-21.5464
-21.7967
-21.9983
-22.138
29.5306
29.5308
29.0061
27.9639
26.595
25.0277
23.3457
21.62
19.9067
18.244
16.6554
15.154
13.7457
12.4312
11.2076
10.0704
9.01346
8.03052
7.11513
6.26107
5.46248
4.71395
4.01053
3.34773
2.72151
2.12826
1.56473
1.02803
0.515562
0.0250214
-0.445662
-0.898341
-1.33467
-1.75615
-2.16411
-2.55976
-2.94419
-3.31839
-3.68324
-4.03956
-4.38809
-4.7295
-5.06441
-5.39338
-5.71693
-6.03553
-6.34962
-6.65962
-6.96589
-7.26879
-7.56864
-7.86576
-8.16041
-8.45289
-8.74342
-9.03227
-9.31964
-9.60576
-9.89084
-10.1751
-10.4586
-10.7417
-11.0245
-11.3072
-11.59
-11.8729
-12.1562
-12.4401
-12.7246
-13.01
-13.2965
-13.5841
-13.873
-14.1635
-14.4556
-14.7495
-15.0454
-15.3435
-15.6438
-15.9466
-16.252
-16.5601
-16.8711
-17.185
-17.5018
-17.8215
-18.1439
-18.4688
-18.7957
-19.1238
-19.4518
-19.7782
-20.1003
-20.4147
-20.7169
-21.0008
-21.2588
-21.4821
-21.6611
-21.787
27.0357
27.0347
26.6379
25.8372
24.7603
23.4971
22.1108
20.6581
19.1865
17.731
16.3157
14.9565
13.6625
12.4384
11.2853
10.2019
9.18543
8.23214
7.33782
6.49808
5.70855
4.96498
4.26338
3.60001
2.97142
2.37446
1.80625
1.26417
0.74586
0.249172
-0.227831
-0.6869
-1.12962
-1.55741
-1.97158
-2.37331
-2.76365
-3.14358
-3.51398
-3.87565
-4.22933
-4.57569
-4.91535
-5.24887
-5.57678
-5.89955
-6.21763
-6.53142
-6.84132
-7.14767
-7.45081
-7.75104
-8.04865
-8.34393
-8.63711
-8.92845
-9.21818
-9.50651
-9.79366
-10.0798
-10.3652
-10.6499
-10.9342
-11.2183
-11.5022
-11.7862
-12.0705
-12.3551
-12.6402
-12.9261
-13.2128
-13.5005
-13.7893
-14.0794
-14.3709
-14.664
-14.9587
-15.2553
-15.5539
-15.8544
-16.1571
-16.462
-16.7691
-17.0784
-17.3898
-17.7031
-18.0181
-18.3342
-18.6507
-18.9667
-19.2808
-19.591
-19.8947
-20.1887
-20.4686
-20.729
-20.9638
-21.166
-21.3286
-21.4453
24.9138
24.911
24.601
23.9706
23.1084
22.0778
20.9257
19.697
18.4308
17.158
15.9011
14.6765
13.4952
12.3638
11.2861
10.263
9.29429
8.37816
7.5123
6.69388
5.91986
5.18715
4.49265
3.83341
3.20659
2.60954
2.03981
1.4951
0.973309
0.472514
-0.00905241
-0.473005
-0.920817
-1.35383
-1.77328
-2.18029
-2.57587
-2.96096
-3.33643
-3.70305
-4.06155
-4.41259
-4.75677
-5.09467
-5.42678
-5.7536
-6.07556
-6.39308
-6.70654
-7.01629
-7.32267
-7.62599
-7.92654
-8.22459
-8.52041
-8.81422
-9.10628
-9.39679
-9.68596
-9.974
-10.2611
-10.5474
-10.8332
-11.1185
-11.4036
-11.6885
-11.9736
-12.2588
-12.5445
-12.8306
-13.1173
-13.4049
-13.6933
-13.9828
-14.2734
-14.5653
-14.8586
-15.1534
-15.4496
-15.7475
-16.047
-16.3481
-16.6508
-16.955
-17.2604
-17.5668
-17.8737
-18.1806
-18.4865
-18.7904
-19.0906
-19.3853
-19.672
-19.9474
-20.2077
-20.4484
-20.6643
-20.8501
-21.0005
-21.1113
23.0833
23.0791
22.8308
22.3239
21.6222
20.771
19.8053
18.7598
17.6668
16.5523
15.437
14.3364
13.2621
12.2217
11.2202
10.2606
9.34386
8.46996
7.63798
6.84639
6.09329
5.37656
4.69397
4.04327
3.42225
2.82876
2.26076
1.71633
1.19364
0.691024
0.206905
-0.260165
-0.711525
-1.14841
-1.57196
-1.98321
-2.38314
-2.77263
-3.15249
-3.52349
-3.8863
-4.24159
-4.58992
-4.93186
-5.26792
-5.59855
-5.9242
-6.24527
-6.56215
-6.87518
-7.18469
-7.491
-7.7944
-8.09515
-8.39352
-8.68975
-8.98407
-9.27669
-9.56783
-9.85769
-10.1464
-10.4343
-10.7214
-11.0079
-11.294
-11.5798
-11.8655
-12.1513
-12.4372
-12.7234
-13.01
-13.2972
-13.5851
-13.8737
-14.1632
-14.4536
-14.7451
-15.0376
-15.3313
-15.6261
-15.9221
-16.219
-16.5169
-16.8155
-17.1146
-17.4137
-17.7123
-18.0097
-18.305
-18.597
-18.884
-19.1643
-19.4353
-19.6942
-19.9376
-20.1617
-20.3623
-20.5353
-20.6768
-20.7837
21.4858
21.481
21.2779
20.863
20.2835
19.5723
18.7555
17.8603
16.9125
15.9343
14.9438
13.9554
12.9802
12.0263
11.0995
10.2034
9.34049
8.51163
7.71703
6.95615
6.22804
5.5314
4.86473
4.22642
3.61482
3.02827
2.46514
1.92384
1.40287
0.900786
0.416242
-0.0520336
-0.505229
-0.944451
-1.37073
-1.78502
-2.18822
-2.58115
-2.96456
-3.33918
-3.70566
-4.0646
-4.41658
-4.76212
-5.10171
-5.43581
-5.76483
-6.08919
-6.40924
-6.72533
-7.03779
-7.34692
-7.65301
-7.95632
-8.25712
-8.55564
-8.8521
-9.14673
-9.43973
-9.73129
-10.0216
-10.3108
-10.5992
-10.8868
-11.1738
-11.4603
-11.7466
-12.0326
-12.3187
-12.6048
-12.8912
-13.1778
-13.4648
-13.7524
-14.0405
-14.3292
-14.6186
-14.9087
-15.1994
-15.4909
-15.7829
-16.0754
-16.3682
-16.661
-16.9534
-17.2451
-17.5354
-17.8235
-18.1084
-18.389
-18.6636
-18.9305
-19.1874
-19.4318
-19.6607
-19.871
-20.0593
-20.2224
-20.3574
-20.462
20.0787
20.0736
19.9049
19.5599
19.075
18.4743
17.7775
17.0057
16.1799
15.3185
14.4373
13.5491
12.6643
11.791
10.9352
10.1011
9.2918
8.50896
7.75352
7.02575
6.32539
5.65182
5.00416
4.38135
3.78222
3.20554
2.65005
2.11452
1.59771
1.09844
0.615576
0.148023
-0.305244
-0.745197
-1.17275
-1.58876
-1.99403
-2.38931
-2.7753
-3.15267
-3.52201
-3.88391
-4.23889
-4.58746
-4.93007
-5.26717
-5.59916
-5.92642
-6.24931
-6.56816
-6.88328
-7.19498
-7.50354
-7.8092
-8.11223
-8.41286
-8.71131
-9.00778
-9.30249
-9.59561
-9.88733
-10.1778
-10.4672
-10.7558
-11.0435
-11.3306
-11.6173
-11.9035
-12.1896
-12.4754
-12.7613
-13.0472
-13.3332
-13.6194
-13.9059
-14.1927
-14.4798
-14.7672
-15.0548
-15.3427
-15.6306
-15.9184
-16.2059
-16.4927
-16.7785
-17.0628
-17.3448
-17.6239
-17.8989
-18.1688
-18.4319
-18.6867
-18.931
-19.1628
-19.3794
-19.5782
-19.7566
-19.912
-20.0422
-20.1456
18.8295
18.8246
18.6824
18.3918
17.9811
17.4687
16.8693
16.1995
15.4762
14.7148
13.9288
13.1294
12.3263
11.5271
10.7378
9.96292
9.2057
8.46846
7.75266
7.05911
6.3881
5.73956
5.11308
4.50807
3.92378
3.35934
2.81384
2.28634
1.77587
1.28148
0.802233
0.337229
-0.114406
-0.553506
-0.980865
-1.39724
-1.80333
-2.19983
-2.58735
-2.9665
-3.33784
-3.70189
-4.05915
-4.41008
-4.75511
-5.09466
-5.4291
-5.75881
-6.08411
-6.40534
-6.72278
-7.03673
-7.34745
-7.6552
-7.9602
-8.2627
-8.56291
-8.86102
-9.15723
-9.45172
-9.74467
-10.0362
-10.3266
-10.6159
-10.9042
-11.1917
-11.4786
-11.7648
-12.0507
-12.3361
-12.6213
-12.9063
-13.1911
-13.4758
-13.7605
-14.0452
-14.3298
-14.6142
-14.8986
-15.1826
-15.4663
-15.7493
-16.0314
-16.3123
-16.5915
-16.8685
-17.1426
-17.413
-17.6787
-17.9386
-18.1912
-18.4351
-18.6684
-18.8892
-19.0954
-19.2848
-19.4552
-19.6046
-19.7315
-19.8345
17.7134
17.7086
17.5874
17.3397
16.9882
16.547
16.0274
15.4423
14.8056
14.1298
13.4265
12.7057
11.9759
11.2442
10.5165
9.79713
9.08967
8.39669
7.72001
7.06082
6.41984
5.79738
5.19344
4.6078
4.04005
3.48966
2.95598
2.43835
1.93603
1.44829
0.974373
0.513556
0.0651122
-0.37166
-0.797436
-1.21287
-1.61857
-2.01514
-2.40313
-2.78309
-3.15551
-3.52087
-3.87962
-4.23218
-4.57897
-4.92035
-5.25669
-5.58832
-5.91556
-6.23871
-6.55806
-6.87387
-7.1864
-7.49589
-7.80257
-8.10665
-8.40834
-8.70783
-9.00531
-9.30094
-9.5949
-9.88734
-10.1784
-10.4682
-10.757
-11.0447
-11.3316
-11.6177
-11.9031
-12.188
-12.4723
-12.7562
-13.0396
-13.3227
-13.6054
-13.8878
-14.1697
-14.4512
-14.7321
-15.0123
-15.2916
-15.5698
-15.8466
-16.1216
-16.3943
-16.6643
-16.9307
-17.193
-17.45
-17.7006
-17.9438
-18.178
-18.4016
-18.613
-18.8104
-18.992
-19.156
-19.3009
-19.4254
-19.5287
16.7105
16.706
16.6016
16.3882
16.0845
15.7015
15.2476
14.7334
14.1699
13.5676
12.9363
12.2847
11.6204
10.9499
10.2786
9.61099
8.95047
8.29981
7.66104
7.03565
6.42464
5.82862
5.24791
4.68257
4.13249
3.59739
3.07689
2.57053
2.0778
1.59814
1.13099
0.675753
0.231856
-0.201279
-0.624217
-1.03751
-1.44168
-1.83724
-2.22469
-2.60449
-2.97709
-3.34291
-3.70237
-4.05583
-4.40368
-4.74625
-5.08388
-5.41687
-5.74552
-6.07011
-6.3909
-6.70815
-7.0221
-7.33296
-7.64096
-7.9463
-8.24917
-8.54974
-8.84821
-9.14472
-9.43944
-9.73251
-10.0241
-10.3142
-10.6031
-10.8909
-11.1776
-11.4633
-11.7482
-12.0322
-12.3156
-12.5982
-12.8801
-13.1614
-13.442
-13.7219
-14.001
-14.2794
-14.5568
-14.833
-15.108
-15.3814
-15.6529
-15.9222
-16.1887
-16.452
-16.7112
-16.9658
-17.2148
-17.4571
-17.6917
-17.9173
-18.1325
-18.3359
-18.5259
-18.701
-18.86
-19.0015
-19.1245
-19.2284
15.805
15.8009
15.7101
15.5246
15.2599
14.9247
14.5257
14.0709
13.5697
13.0306
12.462
11.8714
11.2655
10.6502
10.0305
9.41059
8.79395
8.18331
7.58085
6.9882
6.40657
5.83682
5.27949
4.73488
4.20309
3.68408
3.17767
2.68359
2.20152
1.73106
1.27179
0.823274
0.385052
-0.0433372
-0.462353
-0.87245
-1.27407
-1.66766
-2.05362
-2.43237
-2.8043
-3.16978
-3.52917
-3.88282
-4.23104
-4.57416
-4.91247
-5.24625
-5.57577
-5.90129
-6.22306
-6.5413
-6.85623
-7.16807
-7.47702
-7.78325
-8.08696
-8.38831
-8.68747
-8.98457
-9.27978
-9.57322
-9.86502
-10.1553
-10.4442
-10.7317
-11.018
-11.3032
-11.5873
-11.8704
-12.1525
-12.4337
-12.7139
-12.9933
-13.2716
-13.549
-13.8253
-14.1004
-14.3743
-14.6466
-14.9173
-15.186
-15.4524
-15.7161
-15.9766
-16.2335
-16.4861
-16.7336
-16.9752
-17.21
-17.4369
-17.6549
-17.8628
-18.0593
-18.2431
-18.413
-18.568
-18.7069
-18.829
-18.9339
14.9842
14.9804
14.9008
14.7383
14.5058
14.2103
13.8571
13.4527
13.0046
12.5201
12.0061
11.4692
10.9153
10.3497
9.77692
9.20095
8.62506
8.052
7.48396
6.92268
6.36952
5.82548
5.29128
4.76741
4.25415
3.75164
3.25987
2.77874
2.30806
1.8476
1.39708
0.956159
0.524509
0.101768
-0.312427
-0.718444
-1.11665
-1.5074
-1.89106
-2.26796
-2.63845
-3.00285
-3.36147
-3.71461
-4.06256
-4.40561
-4.74401
-5.07802
-5.40789
-5.73384
-6.0561
-6.37488
-6.69037
-7.00278
-7.31229
-7.61906
-7.92326
-8.22506
-8.52459
-8.82199
-9.1174
-9.41094
-9.70273
-9.99287
-10.2815
-10.5686
-10.8543
-11.1387
-11.4219
-11.7038
-11.9846
-12.2642
-12.5426
-12.8199
-13.0959
-13.3707
-13.644
-13.9159
-14.1862
-14.4547
-14.7211
-14.9852
-15.2466
-15.505
-15.7599
-16.0108
-16.2571
-16.4981
-16.733
-16.961
-17.1811
-17.3925
-17.594
-17.7846
-17.9633
-18.1289
-18.2807
-18.4177
-18.5394
-18.6455
14.2376
14.2341
14.1638
14.0203
13.8146
13.5524
13.2378
12.8762
12.4737
12.0364
11.5702
11.0807
10.5731
10.0521
9.52192
8.98616
8.44796
7.90995
7.37433
6.84287
6.31701
5.79785
5.28626
4.78286
4.28806
3.80216
3.32528
2.85746
2.39866
1.94875
1.50756
1.07489
0.650494
0.234104
-0.174555
-0.575772
-0.969837
-1.35705
-1.73769
-2.11206
-2.48043
-2.84309
-3.20031
-3.55233
-3.89943
-4.24183
-4.57978
-4.9135
-5.24321
-5.56911
-5.8914
-6.21028
-6.52592
-6.8385
-7.14818
-7.45512
-7.75948
-8.06138
-8.36098
-8.65838
-8.95372
-9.24709
-9.53861
-9.82837
-10.1164
-10.4029
-10.6879
-10.9713
-11.2534
-11.534
-11.8133
-12.0911
-12.3676
-12.6427
-12.9163
-13.1884
-13.4588
-13.7275
-13.9942
-14.2588
-14.5211
-14.7808
-15.0374
-15.2908
-15.5404
-15.7857
-16.0261
-16.2611
-16.4899
-16.7118
-16.926
-17.1315
-17.3275
-17.5131
-17.6874
-17.8496
-17.9988
-18.1345
-18.2562
-18.3636
13.5564
13.5532
13.4907
13.3631
13.1799
12.9458
12.6641
12.3391
11.9758
11.5795
11.1551
10.7074
10.241
9.76017
9.26855
8.76954
8.26606
7.76062
7.25537
6.75207
6.2522
5.75695
5.26724
4.7838
4.30717
3.83775
3.37578
2.92142
2.47473
2.03569
1.60424
1.18027
0.763609
0.354091
-0.0484879
-0.444342
-0.833696
-1.21678
-1.59384
-1.96509
-2.33079
-2.69115
-3.0464
-3.39678
-3.74249
-4.08374
-4.42075
-4.7537
-5.08278
-5.40819
-5.73009
-6.04865
-6.36404
-6.67642
-6.98592
-7.29269
-7.59686
-7.89856
-8.19791
-8.49503
-8.79001
-9.08296
-9.37396
-9.6631
-9.95045
-10.2361
-10.52
-10.8024
-11.0831
-11.3623
-11.6399
-11.9159
-12.1904
-12.4632
-12.7343
-13.0036
-13.2711
-13.5365
-13.7998
-14.0606
-14.3189
-14.5742
-14.8264
-15.0749
-15.3195
-15.5596
-15.7947
-16.0242
-16.2475
-16.4639
-16.6727
-16.8732
-17.0644
-17.2458
-17.4165
-17.5758
-17.7231
-17.8578
-17.9797
-18.0885
12.9334
12.9305
12.8746
12.7603
12.5962
12.386
12.1323
11.8387
11.5094
11.1488
10.761
10.3504
9.92077
9.47592
9.01922
8.55372
8.08215
7.60688
7.12996
6.65314
6.17789
5.70542
5.23673
4.77261
4.3137
3.86046
3.41324
2.9723
2.53778
2.10977
1.68827
1.27326
0.86467
0.462388
0.0662865
-0.323785
-0.70799
-1.0865
-1.45951
-1.82719
-2.18973
-2.54733
-2.90017
-3.24843
-3.59231
-3.93197
-4.2676
-4.59936
-4.92742
-5.25193
-5.57305
-5.89093
-6.20571
-6.51753
-6.82651
-7.13279
-7.43647
-7.73767
-8.0365
-8.33305
-8.62742
-8.91969
-9.20994
-9.49824
-9.78466
-10.0692
-10.352
-10.633
-10.9123
-11.1899
-11.4657
-11.7398
-12.0121
-12.2826
-12.5512
-12.8177
-13.0822
-13.3445
-13.6043
-13.8615
-14.1159
-14.3671
-14.6149
-14.859
-15.0989
-15.3341
-15.5643
-15.7888
-16.0071
-16.2187
-16.4227
-16.6187
-16.8058
-16.9835
-17.1512
-17.3081
-17.4539
-17.5881
-17.7104
-17.8206
12.3624
12.3597
12.3094
12.2066
12.0586
11.8689
11.6393
11.3728
11.073
10.7436
10.3881
10.0102
9.61338
9.20089
8.77577
8.34082
7.89852
7.45112
7.00056
6.54852
6.09647
5.64562
5.19701
4.75146
4.30968
3.8722
3.43945
3.01175
2.58932
2.17233
1.76086
1.35496
0.954625
0.559811
0.170452
-0.21354
-0.592276
-0.965877
-1.33448
-1.69822
-2.05724
-2.4117
-2.76175
-3.10753
-3.44919
-3.7869
-4.12078
-4.45099
-4.77767
-5.10094
-5.42095
-5.73781
-6.05166
-6.36261
-6.67078
-6.97626
-7.27917
-7.57961
-7.87765
-8.17339
-8.46691
-8.75828
-9.04757
-9.33483
-9.62011
-9.90345
-10.1849
-10.4645
-10.7422
-11.018
-11.2919
-11.564
-11.8341
-12.1022
-12.3682
-12.632
-12.8935
-13.1526
-13.4091
-13.6628
-13.9134
-14.1607
-14.4044
-14.6442
-14.8797
-15.1105
-15.3361
-15.5561
-15.7699
-15.977
-16.1769
-16.3689
-16.5525
-16.7271
-16.8922
-17.0472
-17.1919
-17.3257
-17.4485
-17.5602
11.8383
11.8358
11.7902
11.6972
11.5632
11.3909
11.1821
10.9391
10.6651
10.363
10.036
9.68717
9.3196
8.93618
8.53964
8.13248
7.71701
7.2953
6.86918
6.44029
6.01003
5.57961
5.15008
4.72229
4.29699
3.87475
3.45607
3.04132
2.6308
2.22472
1.82325
1.42648
1.03447
0.64725
0.264796
-0.112926
-0.485975
-0.854424
-1.21836
-1.57789
-1.93311
-2.28414
-2.6311
-2.97409
-3.31325
-3.64868
-3.98052
-4.30888
-4.63387
-4.95561
-5.27421
-5.58978
-5.90243
-6.21224
-6.51932
-6.82377
-7.12566
-7.42508
-7.72211
-8.01682
-8.30928
-8.59955
-8.88768
-9.17371
-9.45769
-9.73965
-10.0196
-10.2976
-10.5736
-10.8476
-11.1195
-11.3895
-11.6573
-11.923
-12.1864
-12.4475
-12.7061
-12.9621
-13.2153
-13.4655
-13.7125
-13.9561
-14.196
-14.4318
-14.6632
-14.8898
-15.1113
-15.3271
-15.5369
-15.74
-15.9362
-16.1247
-16.3052
-16.4771
-16.64
-16.7935
-16.9372
-17.0709
-17.1943
-17.3074
11.3565
11.3542
11.3128
11.2281
11.106
10.949
10.7582
10.5357
10.2842
10.0061
9.70424
9.38127
9.03987
8.68259
8.31188
7.93002
7.53909
7.14103
6.73755
6.33021
5.92035
5.50917
5.0977
4.68682
4.27727
3.8697
3.46462
3.06247
2.66358
2.26822
1.87662
1.48892
1.10523
0.725628
0.350148
-0.0211996
-0.388428
-0.751569
-1.11067
-1.46579
-1.81701
-2.16439
-2.50802
-2.84799
-3.1844
-3.51733
-3.84687
-4.17313
-4.4962
-4.81616
-5.13312
-5.44715
-5.75835
-6.0668
-6.37258
-6.67576
-6.97642
-7.27463
-7.57045
-7.86394
-8.15515
-8.44414
-8.73094
-9.0156
-9.29813
-9.57857
-9.85692
-10.1332
-10.4074
-10.6794
-10.9494
-11.2171
-11.4827
-11.7459
-12.0067
-12.2651
-12.5208
-12.7738
-13.0238
-13.2707
-13.5143
-13.7544
-13.9905
-14.2226
-14.4502
-14.673
-14.8906
-15.1027
-15.3087
-15.5084
-15.7012
-15.8867
-16.0644
-16.234
-16.3951
-16.5473
-16.6904
-16.824
-16.9481
-17.0625
10.9132
10.9111
10.8732
10.7958
10.6841
10.5402
10.3651
10.1606
9.92879
9.67193
9.39234
9.09239
8.7744
8.44065
8.09331
7.73444
7.36596
6.98964
6.60709
6.21976
5.82896
5.43584
5.04141
4.64655
4.25203
3.8585
3.4665
3.07652
2.68892
2.30403
1.9221
1.54333
1.16788
0.795855
0.427348
0.0624076
-0.29894
-0.656686
-1.01084
-1.36143
-1.70849
-2.05207
-2.39222
-2.72899
-3.06247
-3.3927
-3.71976
-4.04373
-4.36468
-4.68267
-4.99779
-5.31009
-5.61965
-5.92655
-6.23083
-6.53257
-6.83182
-7.12864
-7.42308
-7.71518
-8.005
-8.29256
-8.5779
-8.86105
-9.14201
-9.42081
-9.69745
-9.97192
-10.2442
-10.5143
-10.7821
-11.0477
-11.3109
-11.5717
-11.83
-12.0856
-12.3385
-12.5885
-12.8355
-13.0793
-13.3196
-13.5562
-13.7889
-14.0175
-14.2415
-14.4608
-14.6749
-14.8835
-15.0862
-15.2826
-15.4725
-15.6552
-15.8306
-15.9982
-16.1578
-16.3089
-16.4514
-16.5851
-16.7099
-16.8256
10.5051
10.5032
10.4684
10.3973
10.2947
10.1623
10.0009
9.81207
9.59763
9.35951
9.0997
8.82027
8.52325
8.21067
7.88448
7.54652
7.19855
6.8422
6.47895
6.11019
5.73715
5.36094
4.98254
4.60283
4.22257
3.84242
3.46296
3.08468
2.70799
2.33325
1.96074
1.59071
1.22335
0.85881
0.497216
0.138655
-0.216808
-0.569131
-0.918291
-1.26428
-1.6071
-1.94678
-2.28332
-2.61678
-2.94719
-3.27459
-3.59903
-3.92056
-4.23923
-4.5551
-4.86821
-5.17863
-5.48641
-5.79159
-6.09423
-6.39438
-6.69207
-6.98736
-7.28028
-7.57087
-7.85916
-8.14518
-8.42894
-8.71047
-8.98977
-9.26684
-9.54169
-9.8143
-10.0846
-10.3527
-10.6184
-10.8817
-11.1426
-11.401
-11.6567
-11.9097
-12.1599
-12.407
-12.651
-12.8917
-13.1289
-13.3623
-13.5918
-13.817
-14.0378
-14.2537
-14.4646
-14.67
-14.8697
-15.0633
-15.2504
-15.4308
-15.6041
-15.7699
-15.9281
-16.0784
-16.2205
-16.3543
-16.4797
-16.5967
10.1294
10.1276
10.0955
10.0299
9.93519
9.81281
9.66351
9.48851
9.28941
9.06789
8.82568
8.56457
8.28637
7.99286
7.6858
7.36686
7.03762
6.69958
6.35413
6.00256
5.64604
5.28561
4.92226
4.55681
4.19004
3.82261
3.4551
3.08803
2.72184
2.35689
1.99352
1.63199
1.27253
0.915325
0.560534
0.208278
-0.141348
-0.488268
-0.832429
-1.17379
-1.51234
-1.84805
-2.18094
-2.511
-2.83825
-3.16272
-3.48443
-3.80341
-4.1197
-4.43333
-4.74433
-5.05274
-5.35861
-5.66196
-5.96283
-6.26127
-6.55729
-6.85094
-7.14223
-7.4312
-7.71786
-8.00224
-8.28433
-8.56416
-8.84171
-9.117
-9.38999
-9.66069
-9.92904
-10.195
-10.4586
-10.7197
-10.9783
-11.2342
-11.4874
-11.7378
-11.9853
-12.2297
-12.4709
-12.7086
-12.9428
-13.1732
-13.3996
-13.6218
-13.8394
-14.0523
-14.2602
-14.4627
-14.6596
-14.8506
-15.0353
-15.2136
-15.385
-15.5493
-15.7063
-15.8558
-15.9976
-16.1316
-16.2577
-16.3758
9.78352
9.78181
9.75209
9.69135
9.60351
9.48996
9.35126
9.18847
9.00295
8.79617
8.56963
8.32491
8.0636
7.78729
7.49755
7.19588
6.88373
6.56249
6.23342
5.89774
5.55654
5.21084
4.86156
4.50952
4.15547
3.80008
3.44394
3.08756
2.73141
2.37588
2.02131
1.66801
1.31623
0.966175
0.618039
0.271972
-0.0719021
-0.41348
-0.75268
-1.08944
-1.4237
-1.75544
-2.08463
-2.41126
-2.73531
-3.05679
-3.3757
-3.69206
-4.00588
-4.31718
-4.62598
-4.93231
-5.23617
-5.5376
-5.83662
-6.13326
-6.42752
-6.71943
-7.00902
-7.29628
-7.58124
-7.8639
-8.14426
-8.42232
-8.69808
-8.97152
-9.24263
-9.51137
-9.77772
-10.0416
-10.3031
-10.5619
-10.8182
-11.0718
-11.3225
-11.5704
-11.8153
-12.057
-12.2954
-12.5304
-12.7617
-12.9893
-13.2128
-13.432
-13.6468
-13.8569
-14.062
-14.2618
-14.4562
-14.6448
-14.8274
-15.0036
-15.1734
-15.3364
-15.4924
-15.6412
-15.7828
-15.9169
-16.0436
-16.1628
9.46523
9.46363
9.43598
9.37949
9.29773
9.19196
9.06262
8.91063
8.73715
8.54348
8.33093
8.10088
7.85474
7.59394
7.31987
7.03391
6.73736
6.43148
6.11748
5.79646
5.46946
5.13745
4.80131
4.46183
4.11975
3.77573
3.43035
3.08414
2.73757
2.39105
2.04494
1.69956
1.3552
1.01208
0.670418
0.330391
-0.00785115
-0.344181
-0.678491
-1.01069
-1.34072
-1.6685
-1.99399
-2.31717
-2.638
-2.95646
-3.27254
-3.58623
-3.89754
-4.20646
-4.51301
-4.81717
-5.11897
-5.41842
-5.71552
-6.01029
-6.30272
-6.59285
-6.88065
-7.16616
-7.44935
-7.73024
-8.00882
-8.28508
-8.559
-8.83057
-9.09976
-9.36653
-9.63087
-9.8927
-10.152
-10.4087
-10.6627
-10.9139
-11.1623
-11.4077
-11.65
-11.8892
-12.125
-12.3573
-12.5859
-12.8107
-13.0315
-13.248
-13.4601
-13.6676
-13.8701
-14.0675
-14.2595
-14.446
-14.6266
-14.8011
-14.9694
-15.1311
-15.2862
-15.4345
-15.5759
-15.7102
-15.8375
-15.9577
9.17263
9.17112
9.14531
9.09254
9.01616
8.91726
8.7962
8.65377
8.491
8.30901
8.10895
7.89205
7.65956
7.41275
7.15287
6.88116
6.59882
6.30702
6.00684
5.69933
5.38547
5.06617
4.74226
4.41452
4.08367
3.75034
3.41512
3.07855
2.74108
2.40315
2.06513
1.72735
1.39012
1.0537
0.718305
0.384142
0.0513836
-0.27982
-0.60934
-0.937067
-1.2629
-1.58677
-1.90861
-2.22836
-2.54597
-2.86141
-3.17464
-3.48566
-3.79443
-4.10094
-4.40519
-4.70716
-5.00686
-5.30428
-5.59941
-5.89227
-6.18283
-6.47112
-6.75711
-7.04081
-7.32221
-7.60129
-7.87806
-8.15248
-8.42454
-8.69422
-8.96148
-9.22629
-9.48861
-9.74839
-10.0056
-10.2601
-10.5118
-10.7608
-11.0068
-11.2499
-11.4898
-11.7264
-11.9597
-12.1895
-12.4155
-12.6378
-12.856
-13.0699
-13.2795
-13.4845
-13.6847
-13.8798
-14.0697
-14.2542
-14.433
-14.6059
-14.7728
-14.9335
-15.0878
-15.2356
-15.3768
-15.5113
-15.6392
-15.7603
8.90401
8.90259
8.87839
8.82893
8.75728
8.66446
8.55075
8.41681
8.26357
8.09199
7.90311
7.698
7.47778
7.24358
6.99654
6.73778
6.46839
6.18944
5.90194
5.60686
5.30513
4.99759
4.68505
4.36826
4.04791
3.72461
3.39896
3.07147
2.74263
2.41285
2.08253
1.75203
1.42163
1.09164
0.762281
0.433783
0.106338
-0.219886
-0.54474
-0.868094
-1.18983
-1.50986
-1.82809
-2.14445
-2.45887
-2.77131
-3.08172
-3.39005
-3.69628
-4.00037
-4.30231
-4.60208
-4.89965
-5.19501
-5.48816
-5.77908
-6.06775
-6.35416
-6.63832
-6.92019
-7.19976
-7.47703
-7.75196
-8.02454
-8.29473
-8.56252
-8.82786
-9.09071
-9.35102
-9.60876
-9.86384
-10.1162
-10.3658
-10.6125
-10.8563
-11.097
-11.3346
-11.5689
-11.7997
-12.027
-12.2507
-12.4705
-12.6862
-12.8978
-13.1051
-13.3078
-13.5057
-13.6988
-13.8867
-14.0693
-14.2465
-14.418
-14.5836
-14.7433
-14.8969
-15.0443
-15.1854
-15.3201
-15.4484
-15.5703
8.65787
8.65653
8.63375
8.58721
8.51977
8.43233
8.32513
8.19875
8.05399
7.89172
7.71283
7.51829
7.30911
7.08629
6.85086
6.60384
6.34624
6.07902
5.80313
5.51947
5.2289
4.93224
4.63025
4.32363
4.01306
3.69916
3.38247
3.06354
2.74283
2.42077
2.09776
1.77416
1.45029
1.12644
0.802878
0.479829
0.157505
-0.163906
-0.484238
-0.803343
-1.12109
-1.43736
-1.75206
-2.0651
-2.37639
-2.68586
-2.99346
-3.29914
-3.60284
-3.90452
-4.20416
-4.50171
-4.79716
-5.09046
-5.38161
-5.67058
-5.95734
-6.24188
-6.52418
-6.80421
-7.08196
-7.35739
-7.63049
-7.90122
-8.16955
-8.43545
-8.69887
-8.95978
-9.21812
-9.47384
-9.72688
-9.97717
-10.2246