/*--------------------------------*- C++ -*----------------------------------*\
| =========                 |                                                 |
| \\      /  F ield         | OpenFOAM: The Open Source CFD Toolbox           |
|  \\    /   O peration     | Version:  2406                                  |
|   \\  /    A nd           | Website:  www.openfoam.com                      |
|    \\/     M anipulation  |                                                 |
\*---------------------------------------------------------------------------*/
FoamFile
{
    version     2.0;
    format      ascii;
    arch        "LSB;label=32;scalar=64";
    class       surfaceScalarField;
    location    "750";
    object      phi;
}
// * * * * * * * * * * * * * * * * * * * * * * * * * * * * * * * * * * * * * //

dimensions      [0 3 -1 0 0 0 0];

oriented        oriented;

internalField   nonuniform List<scalar> 
299000
(
0.0796643
0.0203357
0.058679
0.0209853
0.0442545
0.0144246
0.0348016
0.00945288
0.0284995
0.00630208
0.0241891
0.00431041
0.0211373
0.00305184
0.0188876
0.00224966
0.0171635
0.00172412
0.0157971
0.00136636
0.0146841
0.00111302
0.0137571
0.000927022
0.012971
0.000786083
0.0122946
0.000676363
0.0117056
0.000588986
0.0111876
0.000518069
0.010728
0.000459583
0.0103173
0.000410688
0.00994797
0.000369332
0.00961398
0.000333994
0.00931045
0.000303526
0.0090334
0.000277047
0.00877953
0.000253871
0.00854608
0.000233454
0.00833071
0.000215364
0.00813147
0.000199249
0.00794664
0.000184824
0.00777479
0.000171853
0.00761465
0.000160142
0.00746512
0.000149528
0.00732525
0.000139873
0.00719418
0.000131062
0.00707119
0.000122996
0.0069556
0.00011559
0.00684683
0.000108772
0.00674435
0.000102477
0.00664769
9.66531e-05
0.00655644
9.12507e-05
0.00647022
8.62286e-05
0.00638867
8.155e-05
0.00631148
7.71822e-05
0.00623839
7.30967e-05
0.00616912
6.92677e-05
0.00610345
6.56725e-05
0.00604116
6.22907e-05
0.00598205
5.91037e-05
0.00592596
5.60953e-05
0.00587271
5.32503e-05
0.00582215
5.05553e-05
0.00577415
4.7998e-05
0.00572858
4.55671e-05
0.00568533
4.32523e-05
0.00564429
4.10442e-05
0.00560535
3.89342e-05
0.00556844
3.69141e-05
0.00553346
3.49765e-05
0.00550035
3.31144e-05
0.00546903
3.13214e-05
0.00543944
2.95913e-05
0.00541152
2.79183e-05
0.00538522
2.62969e-05
0.0053605
2.47217e-05
0.00533731
2.31877e-05
0.00531562
2.169e-05
0.0052954
2.02237e-05
0.00527661
1.87839e-05
0.00525925
1.73659e-05
0.00524328
1.59649e-05
0.00522871
1.45758e-05
0.00521551
1.31937e-05
0.0052037
1.1813e-05
0.00519327
1.04282e-05
0.00518424
9.03314e-06
0.00517662
7.62122e-06
0.00517043
6.18511e-06
0.00516571
4.71665e-06
0.00516251
3.20658e-06
0.00516086
1.64428e-06
0.00516085
1.74406e-08
0.00516253
-1.68851e-06
0.00516603
-3.49095e-06
0.00517144
-5.41091e-06
0.00517891
-7.47423e-06
0.00518862
-9.71328e-06
0.00520079
-1.21695e-05
0.00521569
-1.48973e-05
0.00523366
-1.79708e-05
0.00525516
-2.14955e-05
0.00528079
-2.56299e-05
0.00531141
-3.06273e-05
0.00534833
-3.69193e-05
0.00539362
-4.52853e-05
0.00545082
-5.72044e-05
0.00552642
-7.56007e-05
0.00563291
-0.000106486
0.00579543
-0.000162518
0.00606524
-0.000269814
0.00654834
-0.000483103
0.0075081
-0.000959754
-0.00227208
0.00978018
0.105208
0.0151279
0.100188
0.0260052
0.0901924
0.02442
0.0797497
0.0198956
0.0705671
0.0154847
0.062985
0.0118924
0.0568423
0.00919461
0.0518615
0.00723042
0.0477846
0.00580102
0.044404
0.00474702
0.0415617
0.00395524
0.0391406
0.00334817
0.0370534
0.00287328
0.035235
0.0024948
0.0336359
0.00218806
0.0322182
0.00193573
0.0309524
0.00172544
0.0298149
0.00154814
0.0287871
0.00139712
0.0278538
0.00126732
0.0270025
0.00115483
0.0262229
0.00105665
0.0255064
0.00097037
0.0248457
0.000894105
0.0242348
0.00082632
0.0236683
0.000765769
0.0231417
0.00071143
0.022651
0.000662458
0.022193
0.000618148
0.0217647
0.00057791
0.0213633
0.000541244
0.0209866
0.000507726
0.0206326
0.000476994
0.0202995
0.000448736
0.0199856
0.000422686
0.0196894
0.000398609
0.0194098
0.000376303
0.0191454
0.00035559
0.0188954
0.000336316
0.0186586
0.000318342
0.0184342
0.000301549
0.0182215
0.000285827
0.0180197
0.000271081
0.0178281
0.000257225
0.0176462
0.000244183
0.0174734
0.000231885
0.0173093
0.00022027
0.0171532
0.00020928
0.0170049
0.000198865
0.0168639
0.000188978
0.0167299
0.000179577
0.0166026
0.000170622
0.0164815
0.000162078
0.0163665
0.000153912
0.0162574
0.000146094
0.0161537
0.000138595
0.0160555
0.000131388
0.0159623
0.00012445
0.0158742
0.000117756
0.0157908
0.000111286
0.0157121
0.000105016
0.0156379
9.8929e-05
0.0155681
9.30042e-05
0.0155025
8.7223e-05
0.0154412
8.15673e-05
0.015384
7.60189e-05
0.0153308
7.05598e-05
0.0152816
6.51718e-05
0.0152363
5.98364e-05
0.015195
5.45345e-05
0.0151575
4.92461e-05
0.015124
4.39502e-05
0.0150944
3.86243e-05
0.0150688
3.32439e-05
0.0150472
2.77819e-05
0.0150297
2.22085e-05
0.0150164
1.64896e-05
0.0150075
1.05863e-05
0.015003
4.4535e-06
0.0150033
-1.96206e-06
0.0150085
-8.72392e-06
0.015019
-1.59092e-05
0.0150352
-2.36129e-05
0.0150574
-3.19545e-05
0.0150863
-4.10871e-05
0.0151226
-5.12124e-05
0.0151673
-6.26042e-05
0.0152214
-7.56475e-05
0.0152867
-9.09069e-05
0.0153653
-0.000109248
0.0154605
-0.000132058
0.0155768
-0.00016166
0.0157217
-0.000202081
0.0159066
-0.000260513
0.0161502
-0.000350069
0.0164824
-0.000494752
0.0169504
-0.0007378
0.0176251
-0.00115779
0.0185706
-0.00190528
-0.0032004
0.019499
0.105142
0.00998562
0.10894
0.0222075
0.107707
0.0256529
0.103023
0.0245794
0.0967851
0.0217228
0.0902284
0.0184491
0.0840025
0.0154205
0.0783694
0.0128635
0.0733845
0.010786
0.0690102
0.00912129
0.0651761
0.00778936
0.0618062
0.00671804
0.0588308
0.00584869
0.0561896
0.00513597
0.0538322
0.00454544
0.0517169
0.00405109
0.0498091
0.00363322
0.0480804
0.00327681
0.0465073
0.00297029
0.0450699
0.00270468
0.0437518
0.0024729
0.0425391
0.00226935
0.0414199
0.00208956
0.0403841
0.0019299
0.0394231
0.0017874
0.0385292
0.00165964
0.037696
0.00154461
0.0369178
0.00144063
0.0361897
0.0013463
0.0355072
0.00126043
0.0348664
0.001182
0.034264
0.00111015
0.0336968
0.00104416
0.0331622
0.000983369
0.0326576
0.000927236
0.032181
0.000875277
0.0317302
0.000827073
0.0313035
0.000782254
0.0308993
0.000740496
0.0305162
0.000701513
0.0301527
0.00066505
0.0298076
0.000630881
0.0294799
0.000598804
0.0291685
0.000568638
0.0288724
0.00054022
0.0285909
0.000513405
0.0283231
0.000488061
0.0280683
0.000464067
0.0278259
0.000441316
0.0275952
0.000419707
0.0273756
0.00039915
0.0271666
0.000379562
0.0269679
0.000360867
0.0267788
0.000342994
0.026599
0.000325878
0.0264281
0.000309458
0.0262658
0.000293678
0.0261118
0.000278484
0.0259657
0.000263827
0.0258274
0.000249659
0.0256964
0.000235935
0.0255728
0.000222613
0.0254561
0.000209651
0.0253463
0.000197009
0.0252432
0.000184648
0.0251467
0.000172529
0.0250567
0.000160614
0.024973
0.000148864
0.0248956
0.00013724
0.0248244
0.0001257
0.0247595
0.000114204
0.0247007
0.000102706
0.0246482
9.11602e-05
0.0246019
7.95138e-05
0.024562
6.7711e-05
0.0245285
5.56893e-05
0.0245016
4.3378e-05
0.0244815
3.06966e-05
0.0244684
1.75516e-05
0.0244626
3.83327e-06
0.0244645
-1.05891e-05
0.0244744
-2.5874e-05
0.024493
-4.2216e-05
0.0245209
-5.98593e-05
0.024559
-7.91159e-05
0.0246081
-0.000100394
0.0246698
-0.000124241
0.0247455
-0.000151416
0.0248376
-0.000183002
0.024949
-0.000220603
0.0250836
-0.000266669
0.025247
-0.000325059
0.0254469
-0.000401999
0.0256941
-0.000507701
0.026003
-0.000658997
0.0263916
-0.000883329
0.0268777
-0.00122393
0.0274652
-0.00174527
0.0280913
-0.00253138
-0.00363024
0.0285212
0.103312
0.00667356
0.108501
0.0170185
0.111574
0.0225801
0.111771
0.024382
0.109656
0.0238385
0.106063
0.0220416
0.101729
0.0197547
0.0971643
0.0174283
0.0926728
0.0152775
0.0884134
0.0133807
0.0844554
0.0117474
0.0808171
0.0103563
0.0774902
0.00917558
0.0744538
0.00817236
0.0716823
0.00731696
0.0691494
0.00658402
0.06683
0.00595254
0.0647015
0.00540531
0.0627435
0.00492838
0.0609377
0.00451038
0.0592686
0.00414209
0.057722
0.00381594
0.0562858
0.00352573
0.0549494
0.00326634
0.0537032
0.00303353
0.0525391
0.00282374
0.0514498
0.00263399
0.0504286
0.00246177
0.04947
0.00230494
0.0485687
0.0021617
0.0477202
0.00203048
0.0469204
0.00190995
0.0461657
0.00179893
0.0454526
0.00169644
0.0447782
0.00160159
0.0441399
0.00151362
0.0435351
0.00143185
0.0429617
0.00135569
0.0424176
0.00128462
0.0419009
0.00121818
0.04141
0.00115594
0.0409433
0.00109754
0.0404995
0.00104266
0.0400771
0.000990981
0.0396751
0.00094225
0.0392923
0.000896222
0.0389277
0.00085268
0.0385803
0.000811423
0.0382494
0.000772273
0.037934
0.000735062
0.0376335
0.000699641
0.0373472
0.000665871
0.0370744
0.000633623
0.0368147
0.000602779
0.0365673
0.00057323
0.0363319
0.000544874
0.036108
0.000517615
0.0358951
0.000491365
0.0356929
0.000466039
0.035501
0.000441558
0.0353191
0.000417845
0.0351468
0.00039483
0.034984
0.000372441
0.0348304
0.000350611
0.0346858
0.000329275
0.03455
0.000308367
0.0344228
0.000287823
0.0343041
0.000267577
0.0341937
0.000247564
0.0340917
0.000227717
0.033998
0.000207964
0.0339124
0.000188233
0.0338351
0.000168445
0.0337661
0.000148515
0.0337055
0.000128351
0.0336533
0.000107849
0.0336098
8.68956e-05
0.0335752
6.53587e-05
0.0335496
4.30871e-05
0.0335336
1.99038e-05
0.0335274
-4.40131e-06
0.0335316
-3.00812e-05
0.0335468
-5.74457e-05
0.0335738
-8.68802e-05
0.0336136
-0.000118873
0.0336672
-0.000154056
0.0337363
-0.000193265
0.0338225
-0.000237632
0.0339282
-0.000288731
0.0340564
-0.000348805
0.0342109
-0.000421131
0.0343964
-0.00051059
0.034619
-0.000624557
0.0348855
-0.000774233
0.035203
-0.000976489
0.0355757
-0.00125605
0.0359988
-0.00164702
0.0364446
-0.00219106
0.0368381
-0.00292494
-0.00383807
0.037046
0.102077
0.00459613
0.106347
0.0127485
0.110418
0.0185096
0.113045
0.0217546
0.113911
0.0229729
0.113195
0.0227576
0.11129
0.0216592
0.10861
0.020109
0.105491
0.0183961
0.10218
0.0166921
0.0988389
0.0150881
0.0955704
0.0136248
0.0924327
0.0123133
0.0894559
0.0111491
0.0866524
0.0101205
0.0840235
0.00921291
0.0815643
0.00841168
0.0792666
0.00770303
0.0771204
0.00707463
0.0751151
0.00651568
0.0732403
0.00601689
0.071486
0.00557026
0.0698427
0.005169
0.0683017
0.00480729
0.0668551
0.00448019
0.0654954
0.00418345
0.0642159
0.00391345
0.0630106
0.00366707
0.0618739
0.00344162
0.0608008
0.00323478
0.0597868
0.00304454
0.0588276
0.00286914
0.0579195
0.00270706
0.0570589
0.00255696
0.0562429
0.00241766
0.0554684
0.00228811
0.0547328
0.00216741
0.0540338
0.00205474
0.053369
0.00194938
0.0527365
0.00185067
0.0521344
0.00175806
0.0515609
0.00167101
0.0510145
0.00158906
0.0504937
0.00151179
0.0499972
0.00143883
0.0495235
0.00136983
0.0490718
0.00130447
0.0486407
0.00124248
0.0482294
0.00118359
0.0478369
0.00112757
0.0474623
0.00107419
0.0471049
0.00102326
0.046764
0.000974594
0.0464387
0.000928015
0.0461286
0.000883365
0.045833
0.000840495
0.0455513
0.000799267
0.0452831
0.00075955
0.045028
0.00072122
0.0447854
0.000684161
0.0445549
0.000648261
0.0443364
0.000613415
0.0441293
0.00057952
0.0439334
0.000546476
0.0437485
0.000514186
0.0435743
0.000482555
0.0434106
0.000451489
0.0432573
0.000420891
0.0431142
0.000390667
0.0429812
0.000360716
0.0428583
0.000330937
0.0427453
0.000301223
0.0426422
0.000271461
0.0425492
0.000241527
0.0424663
0.00021129
0.0423935
0.000180602
0.0423311
0.0001493
0.0422793
0.000117197
0.0422383
8.40807e-05
0.0422085
4.97025e-05
0.0421903
1.37697e-05
0.0421843
-2.40675e-05
0.0421911
-6.42344e-05
0.0422115
-0.000107255
0.0422464
-0.000153784
0.042297
-0.000204659
0.0423647
-0.000260966
0.0424512
-0.000324141
0.0425586
-0.000396122
0.0426894
-0.000479572
0.0428464
-0.000578213
0.0430332
-0.000697301
0.0432529
-0.000844307
0.0435085
-0.00102979
0.0438004
-0.0012684
0.0441238
-0.00157951
0.0444634
-0.00198663
0.0447855
-0.00251315
0.0450313
-0.00317069
-0.00393388
0.0451271
0.101292
0.00330396
0.104405
0.0096358
0.108104
0.0148105
0.111405
0.0184538
0.113751
0.0206266
0.114945
0.0215638
0.115039
0.0215651
0.114219
0.0209287
0.112711
0.0199045
0.110725
0.0186782
0.108436
0.0173772
0.105978
0.0160827
0.103448
0.0148424
0.100916
0.0136814
0.0984264
0.0126103
0.0960084
0.0116309
0.09368
0.0107401
0.0914509
0.00993214
0.0893253
0.00920018
0.087304
0.00853703
0.0853851
0.00793575
0.0835656
0.00738984
0.0818412
0.00689338
0.0802074
0.00644105
0.0786595
0.00602807
0.0771928
0.00565024
0.0758024
0.00530383
0.0744839
0.00498556
0.073233
0.00469253
0.0720455
0.00442218
0.0709178
0.00417226
0.0698462
0.00394076
0.0688274
0.00372592
0.0678581
0.00352618
0.0669356
0.00334014
0.0660572
0.00316655
0.0652203
0.00300432
0.0644226
0.00285245
0.0636619
0.00271005
0.0629363
0.00257632
0.0622438
0.00245055
0.0615827
0.00233209
0.0609514
0.00222034
0.0603484
0.00211478
0.0597723
0.00201493
0.0592218
0.00192035
0.0586956
0.00183062
0.0581927
0.0017454
0.057712
0.00166433
0.0572524
0.00158711
0.0568132
0.00151346
0.0563933
0.00144311
0.0559921
0.00137581
0.0556088
0.00131135
0.0552426
0.0012495
0.0548931
0.00119008
0.0545594
0.0011329
0.0542412
0.00107778
0.0539378
0.00102456
0.0536489
0.000973088
0.053374
0.000923208
0.0531126
0.00087478
0.0528645
0.000827667
0.0526292
0.000781736
0.0524065
0.000736857
0.0521962
0.000692901
0.0519979
0.000649742
0.0518116
0.000607252
0.0516369
0.000565302
0.0514739
0.000523761
0.0513223
0.000482491
0.0511822
0.000441352
0.0510535
0.000400192
0.0509361
0.000358851
0.0508303
0.000317153
0.050736
0.000274906
0.0506534
0.000231898
0.0505827
0.000187887
0.0505242
0.0001426
0.0504782
9.57186e-05
0.050445
4.68726e-05
0.0504254
-4.37799e-06
0.0504197
-5.8562e-05
0.0504288
-0.000116323
0.0504534
-0.000178457
0.0504947
-0.000245961
0.0505539
-0.000320103
0.0506322
-0.000402517
0.0507315
-0.000495346
0.0508533
-0.000601423
0.0509996
-0.000724544
0.0511721
-0.000869803
0.0513719
-0.00104403
0.0515983
-0.00125625
0.0518479
-0.001518
0.0521116
-0.00184316
0.0523714
-0.00224646
0.0525976
-0.00273939
0.0527489
-0.00332193
-0.00396915
0.0527841
0.100819
0.00248545
0.103016
0.00743879
0.105987
0.011839
0.109099
0.0153418
0.111865
0.0178602
0.113984
0.0194456
0.115324
0.0202245
0.11589
0.0203628
0.115765
0.0200297
0.115069
0.0193744
0.113928
0.0185179
0.11246
0.0175511
0.110763
0.0165393
0.108918
0.0155266
0.106986
0.0145415
0.105016
0.013601
0.103042
0.0127143
0.101089
0.0118854
0.0991742
0.0111149
0.0973101
0.0104011
0.0955045
0.00974137
0.0937621
0.00913225
0.0920854
0.00857008
0.0904753
0.00805115
0.0889315
0.00757185
0.087453
0.00712879
0.086038
0.00671878
0.0846847
0.00633892
0.0833907
0.00598652
0.0821537
0.00565916
0.0809713
0.00535463
0.0798412
0.00507094
0.0787608
0.00480629
0.0777279
0.00455905
0.0767403
0.00432774
0.0757959
0.00411103
0.0748924
0.00390773
0.0740282
0.00371674
0.0732011
0.00353708
0.0724096
0.00336785
0.0716519
0.00320823
0.0709265
0.00305749
0.0702319
0.00291495
0.0695667
0.00277999
0.0689296
0.00265205
0.0683193
0.00253061
0.0677347
0.0024152
0.0671747
0.00230538
0.0666383
0.00220074
0.0661245
0.00210091
0.0656324
0.00200556
0.0651612
0.00191436
0.06471
0.00182701
0.0642781
0.00174324
0.0638648
0.00166279
0.0634694
0.00158542
0.0630914
0.00151089
0.0627302
0.001439
0.0623853
0.00136953
0.0620561
0.0013023
0.0617421
0.00123712
0.0614431
0.0011738
0.0611586
0.00111219
0.0608882
0.00105211
0.0606317
0.000993397
0.0603887
0.000935891
0.060159
0.000879434
0.0599424
0.000823864
0.0597387
0.000769021
0.0595477
0.00071474
0.0593693
0.000660849
0.0592035
0.000607172
0.0590502
0.000553522
0.0589093
0.000499699
0.058781
0.000445488
0.0586653
0.000390652
0.0585622
0.000334933
0.0584721
0.000278037
0.058395
0.000219635
0.0583314
0.000159347
0.0582815
9.67351e-05
0.0582459
3.12824e-05
0.0582249
-3.76235e-05
0.0582193
-0.00011072
0.0582298
-0.000188901
0.0582571
-0.000273271
0.0583022
-0.0003652
0.0583661
-0.000466412
0.0584498
-0.000579095
0.0585545
-0.000706043
0.0586808
-0.000850842
0.058829
-0.00101808
0.0589986
-0.00121356
0.0591868
-0.00144446
0.0593881
-0.0017193
0.0595922
-0.00204731
0.0597827
-0.00243696
0.0599361
-0.00289275
0.0600242
-0.00341006
-0.00396848
0.0600235
0.100541
0.00194465
0.102093
0.00588677
0.104369
0.00956253
0.106997
0.0127141
0.10963
0.0152269
0.111998
0.0170783
0.113919
0.0183032
0.115305
0.018977
0.116139
0.019196
0.116453
0.01906
0.11631
0.0186612
0.115782
0.0180787
0.114944
0.0173768
0.113866
0.016605
0.112607
0.0158005
0.111218
0.0149898
0.109741
0.0141912
0.10821
0.013417
0.10665
0.0126749
0.105082
0.0119692
0.103521
0.0113018
0.10198
0.0106733
0.100467
0.010083
0.0989887
0.00952963
0.097549
0.00901146
0.0961513
0.00852655
0.0947972
0.00807284
0.0934879
0.00764829
0.0922235
0.00725087
0.091004
0.00687866
0.0898288
0.00652983
0.0886971
0.00620264
0.0876079
0.00589549
0.0865601
0.00560688
0.0855524
0.00533545
0.0845835
0.0050799
0.0836521
0.00483907
0.082757
0.00461188
0.0818968
0.00439731
0.0810701
0.00419447
0.0802759
0.0040025
0.0795127
0.00382063
0.0787795
0.00364815
0.0780752
0.00348438
0.0773985
0.00332872
0.0767485
0.00318061
0.0761242
0.00303953
0.0755245
0.00290499
0.0749487
0.00277655
0.0743959
0.00265378
0.0738651
0.0025363
0.0733557
0.00242376
0.0728669
0.0023158
0.0723981
0.00221211
0.0719485
0.0021124
0.0715175
0.00201638
0.0711046
0.00192378
0.0707093
0.00183437
0.0703309
0.00174789
0.0699691
0.00166412
0.0696233
0.00158284
0.0692933
0.00150385
0.0689786
0.00142693
0.0686788
0.00135189
0.0683936
0.00127854
0.0681229
0.00120667
0.0678662
0.00113611
0.0676234
0.00106667
0.0673943
0.00099814
0.0671787
0.000930335
0.0669765
0.000863051
0.0667876
0.000796077
0.0666119
0.000729191
0.0664494
0.000662159
0.0663002
0.000594727
0.0661642
0.00052662
0.0660416
0.000457536
0.0659325
0.000387137
0.0658371
0.000315047
0.0657556
0.000240833
0.0656883
0.000164003
0.0656356
8.39827e-05
0.0655979
9.80295e-08
0.0655756
-8.84482e-05
0.0655694
-0.00018261
0.0655796
-0.000283538
0.0656071
-0.000392634
0.0656523
-0.000511612
0.0657157
-0.000642582
0.0657978
-0.000788147
0.0658985
-0.000951508
0.066017
-0.00113657
0.0661515
-0.00134801
0.0662983
-0.00159126
0.0664512
-0.00187222
0.0666006
-0.00219668
0.0667325
-0.00256895
0.0668296
-0.00298976
0.0668727
-0.00345318
-0.00394348
0.0668477
0.100374
0.00157032
0.101489
0.00477195
0.103211
0.00784116
0.105327
0.0105977
0.107614
0.0129402
0.109867
0.0148246
0.111925
0.0162459
0.113672
0.01723
0.115044
0.0178238
0.116019
0.0180853
0.116604
0.0180756
0.11683
0.0178532
0.116736
0.0174705
0.116368
0.0169725
0.115773
0.016396
0.114992
0.0157703
0.114065
0.0151183
0.113025
0.014457
0.111901
0.0137991
0.110717
0.0131535
0.109492
0.0125264
0.108244
0.0119218
0.106984
0.0113424
0.105725
0.0107893
0.104473
0.0102631
0.103236
0.0097636
0.102019
0.0092902
0.100825
0.00884206
0.0996575
0.00841816
0.0985188
0.00801735
0.0974102
0.00763842
0.0963327
0.00728018
0.0952868
0.00694142
0.0942727
0.00662097
0.0932904
0.00631771
0.0923398
0.00603056
0.0914203
0.00575851
0.0905316
0.0055006
0.089673
0.0052559
0.0888439
0.00502359
0.0880436
0.00480285
0.0872713
0.00459293
0.0865262
0.00439316
0.0858078
0.00420286
0.0851151
0.00402143
0.0844474
0.00384829
0.083804
0.00368293
0.0831841
0.00352483
0.0825872
0.00337353
0.0820123
0.0032286
0.081459
0.00308962
0.0809266
0.0029562
0.0804144
0.00282798
0.0799219
0.00270462
0.0794485
0.0025858
0.0789937
0.0024712
0.0785569
0.00236053
0.0781378
0.00225352
0.0777358
0.0021499
0.0773505
0.00204942
0.0769815
0.00195183
0.0766284
0.00185689
0.076291
0.00176437
0.0759688
0.00167406
0.0756616
0.00158572
0.0753692
0.00149915
0.0750912
0.00141411
0.0748274
0.0013304
0.0745778
0.0012478
0.074342
0.00116608
0.0741201
0.001085
0.0739118
0.00100434
0.0737172
0.000923835
0.0735361
0.00084322
0.0733686
0.000762212
0.0732147
0.0006805
0.0730745
0.000597747
0.0729481
0.000513579
0.0728356
0.000427581
0.0727371
0.000339283
0.072653
0.000248151
0.0725834
0.000153574
0.0725286
5.4842e-05
0.072489
-4.88721e-05
0.072465
-0.000158541
0.0724568
-0.000275315
0.0724647
-0.000400562
0.072489
-0.000535914
0.0725297
-0.000683317
0.0725867
-0.000845091
0.0726591
-0.00102397
0.0727457
-0.00122315
0.0728439
-0.00144623
0.0729498
-0.00169713
0.0730573
-0.00197974
0.073158
-0.0022974
0.073241
-0.00265187
0.0732932
-0.00304197
0.0733018
-0.00346185
-0.00389961
0.073258
0.10027
0.00130011
0.10109
0.00395193
0.102397
0.006534
0.104073
0.00892232
0.105976
0.0110371
0.107966
0.0128342
0.109917
0.0142949
0.111726
0.0154216
0.113316
0.0162335
0.114641
0.0167607
0.115677
0.0170395
0.116422
0.0171085
0.116886
0.0170058
0.117092
0.0167665
0.117066
0.0164222
0.116836
0.0159998
0.116433
0.0155219
0.115883
0.0150069
0.115212
0.0144697
0.114444
0.0139219
0.113598
0.0133724
0.112692
0.0128279
0.111741
0.0122934
0.110758
0.0117725
0.109753
0.0112677
0.108736
0.0107806
0.107714
0.0103121
0.106694
0.00986273
0.105679
0.00943253
0.104675
0.00902131
0.103685
0.00862868
0.102711
0.00825408
0.101756
0.00789689
0.10082
0.0075564
0.099906
0.00723189
0.0990139
0.0069226
0.0981446
0.00662778
0.0972985
0.0063467
0.0964758
0.00607862
0.0956766
0.00582284
0.0949007
0.0055787
0.0941481
0.00534553
0.0934186
0.00512273
0.0927117
0.00490969
0.0920273
0.00470586
0.0913649
0.00451071
0.0907241
0.00432373
0.0901045
0.00414444
0.0895056
0.00397238
0.0889271
0.00380712
0.0883685
0.00364826
0.0878292
0.0034954
0.087309
0.00334818
0.0868074
0.00320625
0.086324
0.00306926
0.0858582
0.00293691
0.0854099
0.00280888
0.0849785
0.00268489
0.0845638
0.00256465
0.0841653
0.00244789
0.0837828
0.00233434
0.0834159
0.00222376
0.0830644
0.00211589
0.082728
0.00201049
0.0824064
0.00190731
0.0820994
0.00180613
0.0818068
0.00170669
0.0815285
0.00160876
0.0812641
0.00151211
0.0810138
0.00141647
0.0807772
0.0013216
0.0805543
0.00122723
0.080345
0.00113308
0.0801494
0.00103887
0.0799673
0.000944281
0.0797988
0.000848976
0.079644
0.000752592
0.0795028
0.000654727
0.0793755
0.000554939
0.079262
0.000452733
0.0791626
0.000347552
0.0790774
0.000238764
0.0790066
0.000125648
0.0789504
7.37428e-06
0.0789089
-0.000117014
0.0788822
-0.000248627
0.0788704
-0.000388753
0.0788733
-0.000538892
0.0788908
-0.000700778
0.0789221
-0.000876405
0.0789662
-0.00106803
0.0790212
-0.00127818
0.0790845
-0.00150951
0.0791521
-0.00176474
0.0792186
-0.00204628
0.0792771
-0.00235583
0.0793188
-0.00269364
0.0793345
-0.00305767
0.0793154
-0.00344269
-0.00383964
0.0792554
0.100202
0.00109782
0.100821
0.00333311
0.101827
0.00552848
0.103151
0.00759792
0.104707
0.00948105
0.106401
0.01114
0.108143
0.0125536
0.109849
0.0137152
0.111452
0.01463
0.112901
0.0153118
0.11416
0.0157808
0.115208
0.0160606
0.116037
0.0161763
0.11665
0.0161533
0.117057
0.0160155
0.117272
0.015785
0.117312
0.0154815
0.117197
0.015122
0.116946
0.0147213
0.116576
0.0142913
0.116107
0.0138422
0.115552
0.0133822
0.114928
0.0129177
0.114247
0.0124538
0.11352
0.0119946
0.112757
0.0115431
0.111968
0.0111015
0.111159
0.0106716
0.110337
0.0102544
0.109508
0.00985064
0.108676
0.00946082
0.107845
0.00908508
0.107018
0.00872343
0.106199
0.0083757
0.105389
0.00804163
0.104591
0.00772087
0.103806
0.00741302
0.103035
0.00711764
0.102279
0.00683424
0.101539
0.00656236
0.100817
0.00630149
0.100111
0.00605114
0.099423
0.00581082
0.0987526
0.00558006
0.0981001
0.00535839
0.0974655
0.00514534
0.0968487
0.00494049
0.0962498
0.0047434
0.0956685
0.00455367
0.0951047
0.00437088
0.0945583
0.00419468
0.094029
0.00402468
0.0935166
0.00386054
0.093021
0.00370192
0.0925418
0.00354848
0.0920787
0.00339992
0.0916317
0.00325593
0.0912004
0.00311621
0.0907845
0.00298049
0.0903839
0.00284848
0.0899984
0.00271991
0.0896276
0.00259453
0.0892714
0.00247206
0.0889297
0.00235226
0.0886021
0.00223487
0.0882886
0.00211963
0.087989
0.00200631
0.0877031
0.00189463
0.0874309
0.00178435
0.0871722
0.00167519
0.0869269
0.0015669
0.0866949
0.00145917
0.0864763
0.00135173
0.0862709
0.00124426
0.0860787
0.00113642
0.0858998
0.00102787
0.0857342
0.000918221
0.0855819
0.000807052
0.0854429
0.000693908
0.0853174
0.00057828
0.0852053
0.000459603
0.0851068
0.000337243
0.085022
0.000210487
0.0849509
7.85286e-05
0.0848934
-5.95489e-05
0.0848495
-0.000204786
0.0848192
-0.000358363
0.0848019
-0.000521617
0.0847972
-0.000696049
0.0848041
-0.000883325
0.0848213
-0.00108526
0.0848469
-0.00130377
0.0848781
-0.00154077
0.0849114
-0.00179804
0.0849421
-0.00207695
0.0849644
-0.00237814
0.0849718
-0.00270102
0.0849574
-0.00304327
0.0849151
-0.00340036
-0.00376538
0.0848408
0.100156
0.000941665
0.100635
0.00285439
0.101421
0.004742
0.102476
0.00654349
0.103743
0.0082135
0.105162
0.00972118
0.106669
0.0110471
0.108202
0.0121819
0.109708
0.0131244
0.111139
0.0138803
0.11246
0.0144599
0.113644
0.0148769
0.114673
0.0151474
0.115538
0.0152882
0.116237
0.0153166
0.116772
0.0152492
0.117152
0.0151016
0.117386
0.0148881
0.117486
0.0146216
0.117464
0.0143133
0.117333
0.0139731
0.117106
0.0136093
0.116795
0.0132288
0.116411
0.0128377
0.115965
0.0124407
0.115466
0.0120418
0.114923
0.0116442
0.114344
0.0112504
0.113736
0.0108625
0.113105
0.0104818
0.112456
0.0101097
0.111794
0.00974687
0.111124
0.009394
0.110448
0.00905144
0.10977
0.00871942
0.109093
0.008398
0.108419
0.00808717
0.10775
0.00778681
0.107087
0.00749675
0.106433
0.00721674
0.105788
0.00694653
0.105153
0.00668582
0.10453
0.00643429
0.103918
0.00619161
0.103319
0.00595745
0.102733
0.00573144
0.10216
0.00551327
0.101601
0.00530257
0.101056
0.00509901
0.100524
0.00490225
0.100007
0.00471197
0.0995039
0.00452785
0.0990149
0.00434956
0.09854
0.0041768
0.0980792
0.00400926
0.0976325
0.00384666
0.0971997
0.0036887
0.0967808
0.00353511
0.0963757
0.0033856
0.0959843
0.00323991
0.0956064
0.00309777
0.095242
0.00295891
0.094891
0.00282309
0.0945532
0.00269004
0.0942286
0.00255949
0.093917
0.00243121
0.0936184
0.00230492
0.0933327
0.00218036
0.0930598
0.00205727
0.0927996
0.00193537
0.0925521
0.00181439
0.0923172
0.00169402
0.092095
0.00157396
0.0918854
0.0014539
0.0916883
0.00133348
0.0915038
0.00121234
0.091332
0.00109009
0.0911727
0.000966313
0.0910261
0.000840533
0.0908921
0.000712247
0.0907708
0.000580895
0.0906622
0.000445856
0.0905663
0.000306442
0.0904829
0.000161886
0.090412
1.1333e-05
0.0903534
-0.000146169
0.0903067
-0.000311677
0.0902714
-0.000486353
0.0902469
-0.000671466
0.0902319
-0.000868374
0.0902251
-0.00107849
0.0902246
-0.00130324
0.0902278
-0.00154393
0.0902314
-0.00180167
0.0902316
-0.00207711
0.0902237
-0.00237022
0.0902026
-0.00267999
0.0901635
-0.00300411
0.0901018
-0.00333874
-0.00367849
0.090015
0.100124
0.000817983
0.100502
0.00247558
0.101129
0.00411585
0.101978
0.00569439
0.103014
0.00717678
0.104197
0.00853828
0.105482
0.00976218
0.106825
0.0108389
0.108185
0.011765
0.109523
0.0125418
0.110809
0.0131746
0.112014
0.0136712
0.11312
0.0140414
0.114112
0.0142964
0.114981
0.014448
0.115722
0.014508
0.116335
0.0144882
0.116823
0.0143998
0.117192
0.0142533
0.117447
0.0140583
0.117597
0.0138234
0.117649
0.0135563
0.117614
0.0132639
0.1175
0.012952
0.117315
0.0126257
0.117068
0.0122894
0.116765
0.0119466
0.116415
0.0116004
0.116024
0.0112535
0.115598
0.0109079
0.115143
0.0105652
0.114662
0.010227
0.114162
0.00989416
0.113646
0.00956765
0.113117
0.00924809
0.112579
0.00893596
0.112035
0.00863159
0.111487
0.00833518
0.110937
0.00804687
0.110387
0.00776668
0.109839
0.00749459
0.109294
0.00723051
0.108754
0.00697431
0.10822
0.00672584
0.107692
0.0064849
0.107172
0.00625129
0.106661
0.00602478
0.106158
0.00580512
0.105665
0.00559208
0.105182
0.0053854
0.104709
0.00518482
0.104247
0.00499008
0.103796
0.00480092
0.103355
0.00461707
0.102926
0.00443828
0.102509
0.00426429
0.102103
0.00409484
0.101708
0.00392968
0.101325
0.00376855
0.100954
0.00361119
0.100594
0.00345736
0.100246
0.0033068
0.0999101
0.00315927
0.0995856
0.00301452
0.0992728
0.00287228
0.0989717
0.00273232
0.0986822
0.00259436
0.0984045
0.00245815
0.0981383
0.00232342
0.0978838
0.00218989
0.0976409
0.00205728
0.0974096
0.00192529
0.09719
0.00179361
0.096982
0.00166192
0.0967856
0.00152987
0.0966008
0.0013971
0.0964277
0.0012632
0.0962662
0.00112777
0.0961164
0.000990329
0.0959783
0.000850394
0.0958518
0.000707418
0.0957368
0.000560807
0.0956333
0.00040991
0.0955412
0.000254014
0.0954602
9.23361e-05
0.09539
-7.59762e-05
0.0953302
-0.000251848
0.0952801
-0.000436271
0.0952389
-0.000630293
0.0952056
-0.000834996
0.0951785
-0.00105146
0.095156
-0.00128069
0.0951356
-0.00152356
0.0951146
-0.00178066
0.0950897
-0.00205218
0.0950571
-0.00233771
0.0950132
-0.00263604
0.0949541
-0.002945
0.0948767
-0.00326137
-0.00358089
0.0947791
0.1001
0.000717912
0.100406
0.00216973
0.100913
0.00360869
0.101606
0.00500158
0.102461
0.00632188
0.103449
0.0075497
0.104541
0.00867089
0.105703
0.00967663
0.106905
0.0105627
0.108118
0.0113286
0.109316
0.0119767
0.110476
0.0125116
0.111578
0.0129394
0.112607
0.0132673
0.113552
0.0135034
0.114404
0.0136561
0.115158
0.0137339
0.115812
0.0137452
0.116368
0.0136982
0.116825
0.0136006
0.117189
0.0134595
0.117464
0.0132817
0.117654
0.0130731
0.117767
0.0128392
0.117808
0.0125847
0.117784
0.0123141
0.117699
0.0120309
0.117561
0.0117384
0.117375
0.0114394
0.117147
0.0111364
0.116881
0.0108314
0.116582
0.010526
0.116254
0.0102217
0.115902
0.00991974
0.115529
0.00962107
0.115139
0.00932649
0.114734
0.00903663
0.114317
0.008752
0.113891
0.00847297
0.113458
0.00819983
0.113019
0.00793277
0.112578
0.00767192
0.112135
0.00741735
0.111692
0.00716905
0.11125
0.006927
0.11081
0.00669113
0.110373
0.00646135
0.109941
0.00623753
0.109513
0.00601952
0.109092
0.00580717
0.108676
0.0056003
0.108267
0.00539872
0.107866
0.00520225
0.107472
0.00501067
0.107087
0.00482379
0.10671
0.00464138
0.106341
0.00446324
0.105982
0.00428915
0.105632
0.00411887
0.105291
0.00395219
0.104959
0.00378888
0.104637
0.00362872
0.104325
0.00347145
0.104023
0.00331687
0.10373
0.00316471
0.103448
0.00301475
0.103176
0.00286672
0.102913
0.00272038
0.102661
0.00257547
0.102419
0.0024317
0.102188
0.00228881
0.101967
0.0021465
0.101756
0.00200447
0.101555
0.00186238
0.101365
0.00171991
0.101186
0.00157668
0.101017
0.00143232
0.100858
0.00128641
0.10071
0.00113851
0.100572
0.000988141
0.100445
0.000834783
0.100328
0.000677882
0.100221
0.000516832
0.100124
0.000350981
0.100036
0.000179628
0.0999584
2.02276e-06
0.0998892
-0.00018263
0.0998281
-0.00037516
0.0997742
-0.000576416
0.0997265
-0.00078724