/*--------------------------------*- C++ -*----------------------------------*\
| =========                 |                                                 |
| \\      /  F ield         | OpenFOAM: The Open Source CFD Toolbox           |
|  \\    /   O peration     | Version:  2406                                  |
|   \\  /    A nd           | Website:  www.openfoam.com                      |
|    \\/     M anipulation  |                                                 |
\*---------------------------------------------------------------------------*/
FoamFile
{
    version     2.0;
    format      ascii;
    arch        "LSB;label=32;scalar=64";
    class       volVectorField;
    location    "750";
    object      U;
}
// * * * * * * * * * * * * * * * * * * * * * * * * * * * * * * * * * * * * * //

dimensions      [0 1 -1 0 0 0 0];

internalField   nonuniform List<vector> 
150000
(
(7.94097 0.953545 0)
(6.6975 1.02916 0)
(5.17749 0.578432 0)
(3.90217 0.294373 0)
(3.11146 0.166104 0)
(2.60339 0.0998794 0)
(2.2473 0.062437 0)
(1.98818 0.0414193 0)
(1.79339 0.0293179 0)
(1.64151 0.0219128 0)
(1.51926 0.0170967 0)
(1.41842 0.0137951 0)
(1.33357 0.0114237 0)
(1.26103 0.00965095 0)
(1.19819 0.00828207 0)
(1.14316 0.00719725 0)
(1.09452 0.00631941 0)
(1.0512 0.00559686 0)
(1.01236 0.00499363 0)
(0.977318 0.00448394 0)
(0.945545 0.00404881 0)
(0.916601 0.00367394 0)
(0.890126 0.00334841 0)
(0.86582 0.00306369 0)
(0.843429 0.00281305 0)
(0.822742 0.00259113 0)
(0.803576 0.00239359 0)
(0.785774 0.00221688 0)
(0.769202 0.0020581 0)
(0.753743 0.00191484 0)
(0.739295 0.00178507 0)
(0.725767 0.00166712 0)
(0.713081 0.00155954 0)
(0.701167 0.0014611 0)
(0.689962 0.00137078 0)
(0.679411 0.00128765 0)
(0.669466 0.00121096 0)
(0.66008 0.00114002 0)
(0.651215 0.00107425 0)
(0.642834 0.00101312 0)
(0.634904 0.00095618 0)
(0.627397 0.000903035 0)
(0.620285 0.000853325 0)
(0.613543 0.000806736 0)
(0.60715 0.000762985 0)
(0.601085 0.000721818 0)
(0.595329 0.00068301 0)
(0.589865 0.000646355 0)
(0.584678 0.000611668 0)
(0.579754 0.000578782 0)
(0.575079 0.000547542 0)
(0.57064 0.000517811 0)
(0.566428 0.000489458 0)
(0.562431 0.000462366 0)
(0.558641 0.000436426 0)
(0.555049 0.000411537 0)
(0.551646 0.000387604 0)
(0.548426 0.000364538 0)
(0.545381 0.000342257 0)
(0.542507 0.00032068 0)
(0.539798 0.000299733 0)
(0.537248 0.000279343 0)
(0.534853 0.000259439 0)
(0.53261 0.000239953 0)
(0.530515 0.000220818 0)
(0.528566 0.000201965 0)
(0.526759 0.000183327 0)
(0.525092 0.000164836 0)
(0.523566 0.000146419 0)
(0.522177 0.000128003 0)
(0.520927 0.000109509 0)
(0.519815 9.0854e-05 0)
(0.518841 7.19471e-05 0)
(0.518008 5.26885e-05 0)
(0.517317 3.29678e-05 0)
(0.516771 1.26604e-05 0)
(0.516374 -8.37489e-06 0)
(0.51613 -3.03009e-05 0)
(0.516045 -5.33069e-05 0)
(0.516127 -7.76174e-05 0)
(0.516383 -0.000103499 0)
(0.516825 -0.000131273 0)
(0.517466 -0.000161329 0)
(0.518321 -0.000194147 0)
(0.519409 -0.000230336 0)
(0.520755 -0.000270685 0)
(0.522389 -0.000316265 0)
(0.52435 -0.000368636 0)
(0.526689 -0.000430271 0)
(0.529477 -0.000505504 0)
(0.532816 -0.000602653 0)
(0.536865 -0.000738809 0)
(0.541883 -0.000950707 0)
(0.548334 -0.00132129 0)
(0.557086 -0.00204852 0)
(0.569774 -0.00360195 0)
(0.589579 -0.00705267 0)
(0.624246 -0.0156341 0)
(0.695637 -0.0459028 0)
(0.80743 -0.169644 0)
(10.2186 1.88712 0)
(10.3826 2.72494 0)
(9.62168 2.24108 0)
(8.49556 1.62034 0)
(7.47669 1.14057 0)
(6.64214 0.808036 0)
(5.96299 0.586493 0)
(5.41217 0.439643 0)
(4.9641 0.34051 0)
(4.59524 0.271609 0)
(4.28716 0.222147 0)
(4.02628 0.185504 0)
(3.80259 0.157573 0)
(3.60862 0.135745 0)
(3.43876 0.118317 0)
(3.28871 0.104147 0)
(3.15516 0.0924458 0)
(3.03549 0.0826543 0)
(2.92763 0.0743658 0)
(2.8299 0.0672787 0)
(2.74095 0.0611648 0)
(2.65963 0.0558486 0)
(2.58501 0.0511933 0)
(2.51632 0.0470906 0)
(2.45287 0.0434539 0)
(2.39412 0.0402131 0)
(2.33957 0.0373112 0)
(2.28879 0.034701 0)
(2.24144 0.0323437 0)
(2.19719 0.0302065 0)
(2.15576 0.028262 0)
(2.11691 0.026487 0)
(2.08043 0.0248617 0)
(2.04611 0.0233691 0)
(2.0138 0.0219945 0)
(1.98333 0.0207255 0)
(1.95457 0.0195509 0)
(1.9274 0.0184612 0)
(1.9017 0.0174481 0)
(1.87738 0.0165041 0)
(1.85434 0.0156227 0)
(1.8325 0.0147981 0)
(1.81179 0.0140252 0)
(1.79214 0.0132995 0)
(1.77348 0.0126167 0)
(1.75576 0.0119731 0)
(1.73893 0.0113656 0)
(1.72293 0.010791 0)
(1.70772 0.0102467 0)
(1.69327 0.00973017 0)
(1.67952 0.00923912 0)
(1.66646 0.00877151 0)
(1.65405 0.00832544 0)
(1.64226 0.00789915 0)
(1.63105 0.00749104 0)
(1.62042 0.00709959 0)
(1.61033 0.00672341 0)
(1.60077 0.00636119 0)
(1.59171 0.00601168 0)
(1.58313 0.00567372 0)
(1.57503 0.00534621 0)
(1.56739 0.00502807 0)
(1.56019 0.00471829 0)
(1.55343 0.00441585 0)
(1.54708 0.0041198 0)
(1.54116 0.00382916 0)
(1.53564 0.00354296 0)
(1.53052 0.00326024 0)
(1.5258 0.00297999 0)
(1.52147 0.0027012 0)
(1.51753 0.00242278 0)
(1.51398 0.00214361 0)
(1.51082 0.00186244 0)
(1.50806 0.00157796 0)
(1.5057 0.00128869 0)
(1.50374 0.000992998 0)
(1.5022 0.000689019 0)
(1.50109 0.000374621 0)
(1.50041 4.73234e-05 0)
(1.5002 -0.000295802 0)
(1.50047 -0.000658256 0)
(1.50125 -0.00104429 0)
(1.50257 -0.00145913 0)
(1.50447 -0.00190937 0)
(1.50702 -0.00240345 0)
(1.51026 -0.00295253 0)
(1.51428 -0.00357183 0)
(1.51919 -0.00428308 0)
(1.52511 -0.00511875 0)
(1.53225 -0.00613024 0)
(1.54084 -0.00740357 0)
(1.55128 -0.00909025 0)
(1.56413 -0.0114692 0)
(1.58029 -0.0150722 0)
(1.60118 -0.0209405 0)
(1.62909 -0.031138 0)
(1.66774 -0.0497107 0)
(1.72367 -0.0846134 0)
(1.80598 -0.152536 0)
(1.89933 -0.286488 0)
(10.1768 1.34552 0)
(10.7882 2.53796 0)
(10.9413 2.66466 0)
(10.5996 2.36743 0)
(10.0101 1.9612 0)
(9.34893 1.57593 0)
(8.7005 1.25814 0)
(8.10395 1.0116 0)
(7.57276 0.82412 0)
(7.10607 0.681535 0)
(6.69737 0.572051 0)
(6.33886 0.486797 0)
(6.02311 0.41936 0)
(5.74358 0.36518 0)
(5.49474 0.321006 0)
(5.27201 0.284505 0)
(5.0716 0.253977 0)
(4.8904 0.228166 0)
(4.72583 0.20613 0)
(4.57574 0.187152 0)
(4.43834 0.170681 0)
(4.31211 0.156282 0)
(4.19578 0.143615 0)
(4.08826 0.132406 0)
(3.98861 0.122433 0)
(3.89604 0.113516 0)
(3.80983 0.105509 0)
(3.7294 0.0982868 0)
(3.65419 0.0917481 0)
(3.58376 0.0858068 0)
(3.51769 0.08039 0)
(3.45561 0.0754357 0)
(3.3972 0.0708912 0)
(3.34217 0.0667109 0)
(3.29027 0.0628554 0)
(3.24126 0.0592907 0)
(3.19494 0.055987 0)
(3.15111 0.0529184 0)
(3.1096 0.050062 0)
(3.07027 0.0473977 0)
(3.03297 0.0449075 0)
(2.99757 0.0425757 0)
(2.96396 0.0403882 0)
(2.93202 0.0383323 0)
(2.90167 0.0363968 0)
(2.87282 0.0345714 0)
(2.84537 0.0328469 0)
(2.81926 0.0312151 0)
(2.79441 0.0296685 0)
(2.77077 0.0282 0)
(2.74827 0.0268036 0)
(2.72685 0.0254734 0)
(2.70648 0.0242041 0)
(2.6871 0.0229909 0)
(2.66866 0.0218293 0)
(2.65114 0.0207151 0)
(2.63449 0.0196444 0)
(2.61868 0.0186135 0)
(2.60368 0.017619 0)
(2.58947 0.0166577 0)
(2.57601 0.0157264 0)
(2.56328 0.0148222 0)
(2.55127 0.0139422 0)
(2.53995 0.0130837 0)
(2.52931 0.012244 0)
(2.51934 0.0114204 0)
(2.51001 0.0106103 0)
(2.50133 0.0098109 0)
(2.49327 0.00901954 0)
(2.48585 0.00823341 0)
(2.47904 0.00744957 0)
(2.47285 0.00666493 0)
(2.46729 0.00587618 0)
(2.46235 0.00507972 0)
(2.45803 0.0042716 0)
(2.45436 0.00344741 0)
(2.45134 0.00260218 0)
(2.44898 0.00173022 0)
(2.44732 0.000824896 0)
(2.44636 -0.000121566 0)
(2.44616 -0.00111848 0)
(2.44674 -0.00217712 0)
(2.44815 -0.00331144 0)
(2.45046 -0.00453893 0)
(2.45373 -0.00588207 0)
(2.45807 -0.00737041 0)
(2.46357 -0.00904403 0)
(2.4704 -0.010959 0)
(2.47873 -0.013197 0)
(2.48882 -0.0158814 0)
(2.50101 -0.0192065 0)
(2.51575 -0.0234892 0)
(2.5337 -0.0292618 0)
(2.55576 -0.0374386 0)
(2.58317 -0.0496083 0)
(2.61756 -0.0685211 0)
(2.66088 -0.0988167 0)
(2.71491 -0.14803 0)
(2.77849 -0.227589 0)
(2.83529 -0.348653 0)
(10.0798 0.823407 0)
(10.5966 1.94653 0)
(11.0631 2.45332 0)
(11.2347 2.53062 0)
(11.1192 2.3688 0)
(10.8127 2.10355 0)
(10.4012 1.81898 0)
(9.94649 1.55635 0)
(9.48809 1.32978 0)
(9.04782 1.14036 0)
(8.63592 0.984059 0)
(8.25598 0.855437 0)
(7.90807 0.749268 0)
(7.59046 0.66109 0)
(7.30068 0.587295 0)
(7.03607 0.525032 0)
(6.79403 0.472071 0)
(6.57216 0.426669 0)
(6.36829 0.387457 0)
(6.18052 0.353358 0)
(6.00713 0.323514 0)
(5.84666 0.297239 0)
(5.6978 0.273978 0)
(5.55942 0.253281 0)
(5.4305 0.234777 0)
(5.31018 0.218163 0)
(5.19768 0.203183 0)
(5.0923 0.189626 0)
(4.99345 0.177313 0)
(4.90057 0.166092 0)
(4.81319 0.155836 0)
(4.73087 0.146432 0)
(4.65323 0.137787 0)
(4.57992 0.129819 0)
(4.51061 0.122457 0)
(4.44504 0.115637 0)
(4.38295 0.109307 0)
(4.32409 0.103419 0)
(4.26826 0.0979296 0)
(4.21526 0.092803 0)
(4.16492 0.0880058 0)
(4.11708 0.0835087 0)
(4.07159 0.0792854 0)
(4.02831 0.0753123 0)
(3.98712 0.0715685 0)
(3.9479 0.0680347 0)
(3.91056 0.0646938 0)
(3.87498 0.0615302 0)
(3.84109 0.0585297 0)
(3.80879 0.0556793 0)
(3.77801 0.0529673 0)
(3.74869 0.0503826 0)
(3.72075 0.0479154 0)
(3.69414 0.0455564 0)
(3.6688 0.0432971 0)
(3.64467 0.0411295 0)
(3.62171 0.0390462 0)
(3.59988 0.0370402 0)
(3.57914 0.0351051 0)
(3.55944 0.0332347 0)
(3.54076 0.031423 0)
(3.52306 0.0296644 0)
(3.50631 0.0279535 0)
(3.4905 0.0262852 0)
(3.47559 0.0246541 0)
(3.46157 0.0230553 0)
(3.44842 0.0214838 0)
(3.43613 0.0199345 0)
(3.42468 0.0184022 0)
(3.41407 0.0168817 0)
(3.40428 0.0153674 0)
(3.39531 0.0138537 0)
(3.38717 0.0123343 0)
(3.37986 0.0108025 0)
(3.37337 0.00925109 0)
(3.36773 0.00767191 0)
(3.36294 0.00605582 0)
(3.35903 0.00439239 0)
(3.35601 0.00266955 0)
(3.35392 0.00087314 0)
(3.3528 -0.0010137 0)
(3.35268 -0.00301137 0)
(3.35364 -0.00514491 0)
(3.35573 -0.00744566 0)
(3.35904 -0.00995356 0)
(3.36368 -0.0127207 0)
(3.36978 -0.0158166 0)
(3.37749 -0.0193369 0)
(3.38702 -0.0234166 0)
(3.39864 -0.0282522 0)
(3.41267 -0.0341381 0)
(3.42954 -0.0415261 0)
(3.44978 -0.0511226 0)
(3.47405 -0.064042 0)
(3.50308 -0.0820381 0)
(3.53752 -0.107812 0)
(3.57754 -0.145318 0)
(3.62198 -0.199816 0)
(3.6664 -0.276859 0)
(3.6991 -0.377258 0)
(10.0426 0.546331 0)
(10.395 1.45872 0)
(10.8535 2.05169 0)
(11.2146 2.33763 0)
(11.3915 2.39324 0)
(11.3901 2.30063 0)
(11.2486 2.12912 0)
(11.01 1.92745 0)
(10.7128 1.7245 0)
(10.3862 1.53495 0)
(10.0504 1.36482 0)
(9.71799 1.21538 0)
(9.39659 1.08549 0)
(9.09035 0.973085 0)
(8.80116 0.87584 0)
(8.52958 0.791545 0)
(8.27533 0.718231 0)
(8.03771 0.654208 0)
(7.81576 0.598048 0)
(7.60843 0.548562 0)
(7.41468 0.504758 0)
(7.23346 0.465814 0)
(7.0638 0.431043 0)
(6.90479 0.399872 0)
(6.7556 0.37182 0)
(6.61545 0.346483 0)
(6.48365 0.323519 0)
(6.35956 0.302638 0)
(6.24259 0.283592 0)
(6.13222 0.266169 0)
(6.02797 0.250187 0)
(5.92941 0.235487 0)
(5.83613 0.221933 0)
(5.74778 0.209406 0)
(5.66402 0.197802 0)
(5.58456 0.18703 0)
(5.50912 0.177009 0)
(5.43745 0.167669 0)
(5.36931 0.158947 0)
(5.3045 0.150786 0)
(5.24281 0.143138 0)
(5.18407 0.135958 0)
(5.12812 0.129206 0)
(5.07479 0.122845 0)
(5.02396 0.116845 0)
(4.97548 0.111174 0)
(4.92924 0.105808 0)
(4.88512 0.100722 0)
(4.84302 0.0958934 0)
(4.80286 0.0913029 0)
(4.76452 0.0869319 0)
(4.72795 0.0827635 0)
(4.69304 0.0787821 0)
(4.65975 0.0749733 0)
(4.628 0.0713237 0)
(4.59772 0.0678209 0)
(4.56887 0.0644533 0)
(4.54139 0.0612099 0)
(4.51524 0.0580805 0)
(4.49036 0.0550554 0)
(4.46672 0.0521252 0)
(4.44427 0.0492812 0)
(4.423 0.0465148 0)
(4.40286 0.0438178 0)
(4.38383 0.041182 0)
(4.36588 0.0385996 0)
(4.34899 0.0360626 0)
(4.33314 0.0335632 0)
(4.31833 0.0310932 0)
(4.30452 0.0286445 0)
(4.29173 0.0262085 0)
(4.27993 0.0237762 0)
(4.26913 0.0213382 0)
(4.25932 0.0188841 0)
(4.25052 0.0164027 0)
(4.24274 0.0138816 0)
(4.23597 0.0113069 0)
(4.23026 0.00866285 0)
(4.22561 0.00593121 0)
(4.22206 0.00309072 0)
(4.21965 0.000116238 0)
(4.21842 -0.00302248 0)
(4.21845 -0.00636232 0)
(4.21978 -0.00994903 0)
(4.22252 -0.0138404 0)
(4.22677 -0.0181105 0)
(4.23264 -0.0228569 0)
(4.24031 -0.0282104 0)
(4.24995 -0.03435 0)
(4.26179 -0.0415271 0)
(4.2761 -0.0501008 0)
(4.2932 -0.0605925 0)
(4.31344 -0.0737657 0)
(4.33714 -0.0907375 0)
(4.36453 -0.113117 0)
(4.39547 -0.143133 0)
(4.42912 -0.183644 0)
(4.46323 -0.23775 0)
(4.49331 -0.307498 0)
(4.51183 -0.390624 0)
(10.0236 0.385472 0)
(10.2537 1.09648 0)
(10.6178 1.64948 0)
(10.9919 2.0113 0)
(11.2853 2.19921 0)
(11.4636 2.24896 0)
(11.5246 2.2013 0)
(11.483 2.09347 0)
(11.3611 1.95422 0)
(11.1815 1.8032 0)
(10.9639 1.65267 0)
(10.7236 1.50952 0)
(10.4722 1.37714 0)
(10.2178 1.25672 0)
(9.96573 1.14824 0)
(9.71976 1.05102 0)
(9.4821 0.964084 0)
(9.25405 0.886373 0)
(9.03626 0.816847 0)
(8.82892 0.754541 0)
(8.63197 0.698583 0)
(8.44513 0.648201 0)
(8.26804 0.602719 0)
(8.10025 0.561549 0)
(7.94128 0.52418 0)
(7.79067 0.490169 0)
(7.64792 0.459133 0)
(7.51258 0.430738 0)
(7.38422 0.404695 0)
(7.2624 0.380752 0)
(7.14673 0.358687 0)
(7.03685 0.338309 0)
(6.93241 0.319449 0)
(6.83308 0.301956 0)
(6.73856 0.2857 0)
(6.64858 0.270564 0)
(6.56287 0.256445 0)
(6.4812 0.243252 0)
(6.40333 0.230903 0)
(6.32906 0.219323 0)
(6.2582 0.208449 0)
(6.19056 0.19822 0)
(6.12598 0.188583 0)
(6.0643 0.179491 0)
(6.00538 0.1709 0)
(5.94908 0.16277 0)
(5.89528 0.155066 0)
(5.84385 0.147754 0)
(5.7947 0.140805 0)
(5.7477 0.134192 0)
(5.70279 0.127888 0)
(5.65985 0.121871 0)
(5.61882 0.116119 0)
(5.57961 0.110613 0)
(5.54215 0.105333 0)
(5.50638 0.100262 0)
(5.47223 0.0953843 0)
(5.43965 0.0906845 0)
(5.40859 0.0861482 0)
(5.37898 0.0817617 0)
(5.3508 0.0775122 0)
(5.32399 0.0733871 0)
(5.29853 0.0693745 0)
(5.27437 0.0654629 0)
(5.25148 0.0616408 0)
(5.22983 0.0578972 0)
(5.20941 0.0542209 0)
(5.19018 0.0506009 0)
(5.17213 0.0470259 0)
(5.15525 0.0434844 0)
(5.13953 0.0399646 0)
(5.12494 0.036454 0)
(5.1115 0.0329394 0)
(5.0992 0.0294067 0)
(5.08804 0.0258404 0)
(5.07802 0.0222237 0)
(5.06917 0.0185376 0)
(5.0615 0.0147608 0)
(5.05504 0.0108688 0)
(5.0498 0.00683318 0)
(5.04583 0.00262066 0)
(5.04318 -0.00180857 0)
(5.0419 -0.00650258 0)
(5.04205 -0.0115203 0)
(5.04371 -0.0169353 0)
(5.04698 -0.0228403 0)
(5.05197 -0.0293549 0)
(5.05881 -0.0366354 0)
(5.06765 -0.0448895 0)
(5.07865 -0.0543979 0)
(5.09202 -0.0655438 0)
(5.10792 -0.0788555 0)
(5.12651 -0.0950605 0)
(5.14784 -0.11515 0)
(5.17176 -0.140441 0)
(5.19771 -0.172583 0)
(5.22441 -0.213429 0)
(5.24956 -0.264591 0)
(5.26953 -0.326435 0)
(5.27964 -0.396299 0)
(10.0134 0.283937 0)
(10.1646 0.837145 0)
(10.4345 1.31438 0)
(10.7555 1.67876 0)
(11.0609 1.92459 0)
(11.3106 2.06221 0)
(11.4851 2.11041 0)
(11.5792 2.09135 0)
(11.5987 2.0261 0)
(11.5544 1.93211 0)
(11.4595 1.82262 0)
(11.3263 1.70697 0)
(11.1658 1.59135 0)
(10.987 1.47958 0)
(10.7968 1.37385 0)
(10.6007 1.27519 0)
(10.4027 1.18396 0)
(10.2058 1.10008 0)
(10.0121 1.0232 0)
(9.82288 0.95287 0)
(9.63923 0.888566 0)
(9.46174 0.829761 0)
(9.29074 0.775947 0)
(9.12639 0.726646 0)
(8.96871 0.681416 0)
(8.81763 0.639859 0)
(8.673 0.601612 0)
(8.53464 0.566352 0)
(8.40233 0.533788 0)
(8.27584 0.503661 0)
(8.15493 0.47574 0)
(8.03936 0.449818 0)
(7.92889 0.425712 0)
(7.82328 0.403256 0)
(7.72231 0.382304 0)
(7.62576 0.362723 0)
(7.53342 0.344395 0)
(7.44508 0.327214 0)
(7.36056 0.311084 0)
(7.27967 0.295919 0)
(7.20225 0.28164 0)
(7.12814 0.268176 0)
(7.05717 0.255464 0)
(6.98921 0.243445 0)
(6.92413 0.232067 0)
(6.86179 0.221279 0)
(6.80207 0.21104 0)
(6.74487 0.201306 0)
(6.69008 0.192042 0)
(6.63759 0.183212 0)
(6.58732 0.174786 0)
(6.53917 0.166733 0)
(6.49307 0.159026 0)
(6.44893 0.15164 0)
(6.40669 0.144552 0)
(6.36627 0.137739 0)
(6.32762 0.13118 0)
(6.29067 0.124857 0)
(6.25538 0.118749 0)
(6.22168 0.112841 0)
(6.18953 0.107115 0)
(6.1589 0.101554 0)
(6.12973 0.0961446 0)
(6.10199 0.0908702 0)
(6.07565 0.0857166 0)
(6.05068 0.0806692 0)
(6.02706 0.0757138 0)
(6.00475 0.0708359 0)
(5.98373 0.0660209 0)
(5.964 0.0612541 0)
(5.94554 0.05652 0)
(5.92833 0.0518028 0)
(5.91237 0.0470854 0)
(5.89767 0.0423497 0)
(5.8842 0.0375763 0)
(5.872 0.0327437 0)
(5.86106 0.027828 0)
(5.85139 0.0228026 0)
(5.84303 0.017637 0)
(5.83598 0.0122962 0)
(5.8303 0.00673952 0)
(5.82601 0.000918634 0)
(5.82317 -0.00522402 0)
(5.82182 -0.0117582 0)
(5.82205 -0.0187695 0)
(5.82391 -0.0263642 0)
(5.82751 -0.034676 0)
(5.83293 -0.0438756 0)
(5.84029 -0.0541827 0)
(5.84968 -0.065883 0)
(5.86121 -0.0793508 0)
(5.87493 -0.0950758 0)
(5.89085 -0.113695 0)
(5.90882 -0.13602 0)
(5.92846 -0.163046 0)
(5.94903 -0.195902 0)
(5.96923 -0.235692 0)
(5.98706 -0.283125 0)
(5.99984 -0.337864 0)
(6.00466 -0.397618 0)
(10.0083 0.218055 0)
(10.1103 0.654776 0)
(10.3067 1.05503 0)
(10.5624 1.38948 0)
(10.8344 1.64658 0)
(11.0903 1.82579 0)
(11.3082 1.93344 0)
(11.475 1.98037 0)
(11.5857 1.97922 0)
(11.6419 1.94238 0)
(11.6487 1.88072 0)
(11.6133 1.80314 0)
(11.5432 1.71648 0)
(11.4458 1.62575 0)
(11.3275 1.5345 0)
(11.194 1.44506 0)
(11.0498 1.35896 0)
(10.8986 1.27706 0)
(10.7434 1.19982 0)
(10.5866 1.12739 0)
(10.4298 1.05974 0)
(10.2745 0.996717 0)
(10.1216 0.93809 0)
(9.97189 0.883599 0)
(9.82589 0.832963 0)
(9.68396 0.785902 0)
(9.54633 0.742144 0)
(9.41314 0.701428 0)
(9.28445 0.66351 0)
(9.16027 0.628163 0)
(9.04055 0.595177 0)
(8.92523 0.56436 0)
(8.81421 0.535534 0)
(8.70739 0.50854 0)
(8.60464 0.483229 0)
(8.50584 0.459469 0)
(8.41086 0.437136 0)
(8.31957 0.416119 0)
(8.23184 0.396316 0)
(8.14753 0.377635 0)
(8.06651 0.359991 0)
(7.98867 0.343307 0)
(7.91388 0.32751 0)
(7.84203 0.312538 0)
(7.77301 0.298328 0)
(7.7067 0.284828 0)
(7.64301 0.271985 0)
(7.58183 0.259754 0)
(7.52308 0.248091 0)
(7.46667 0.236956 0)
(7.41251 0.226312 0)
(7.36052 0.216125 0)
(7.31063 0.206362 0)
(7.26276 0.196994 0)
(7.21686 0.187993 0)
(7.17284 0.179331 0)
(7.13066 0.170984 0)
(7.09026 0.162929 0)
(7.05159 0.155143 0)
(7.01459 0.147606 0)
(6.97923 0.140296 0)
(6.94545 0.133194 0)
(6.91322 0.126281 0)
(6.8825 0.119539 0)
(6.85326 0.11295 0)
(6.82547 0.106497 0)
(6.7991 0.100161 0)
(6.77413 0.093925 0)
(6.75054 0.0877714 0)
(6.72831 0.0816819 0)
(6.70742 0.0756379 0)
(6.68787 0.0696198 0)
(6.66964 0.0636073 0)
(6.65274 0.0575784 0)
(6.63715 0.0515095 0)
(6.62289 0.0453752 0)
(6.60996 0.039147 0)
(6.59837 0.0327934 0)
(6.58814 0.0262787 0)
(6.57929 0.0195622 0)
(6.57184 0.0125968 0)
(6.56583 0.00532758 0)
(6.5613 -0.00231031 0)
(6.55829 -0.0103944 0)
(6.55685 -0.0190181 0)
(6.55703 -0.0282954 0)
(6.5589 -0.0383665 0)
(6.56251 -0.0494054 0)
(6.56794 -0.0616294 0)
(6.57521 -0.0753112 0)
(6.58435 -0.090793 0)
(6.59533 -0.108502 0)
(6.60804 -0.128961 0)
(6.62221 -0.152797 0)
(6.63737 -0.180718 0)
(6.65276 -0.213448 0)
(6.6672 -0.251584 0)
(6.67911 -0.295331 0)
(6.68658 -0.344114 0)
(6.68776 -0.39614 0)
(10.0055 0.173577 0)
(10.0768 0.525186 0)
(10.2204 0.858857 0)
(10.4186 1.15364 0)
(10.6449 1.39848 0)
(10.8767 1.58922 0)
(11.0959 1.72645 0)
(11.2884 1.81435 0)
(11.4455 1.85943 0)
(11.5631 1.86921 0)
(11.6406 1.85123 0)
(11.6802 1.81243 0)
(11.6857 1.7588 0)
(11.6615 1.69523 0)
(11.6123 1.62563 0)
(11.5424 1.55294 0)
(11.4561 1.47934 0)
(11.357 1.40641 0)
(11.2481 1.33523 0)
(11.1322 1.2665 0)
(11.0113 1.20068 0)
(10.8872 1.13799 0)
(10.7616 1.07855 0)
(10.6354 1.02237 0)
(10.5096 0.969363 0)
(10.385 0.919435 0)
(10.2622 0.872447 0)
(10.1416 0.828248 0)
(10.0234 0.786679 0)
(9.90809 0.747581 0)
(9.7957 0.710796 0)
(9.68637 0.676173 0)
(9.58019 0.643566 0)
(9.47718 0.612838 0)
(9.37737 0.583859 0)
(9.28073 0.55651 0)
(9.18723 0.530675 0)
(9.09684 0.506252 0)
(9.00949 0.483141 0)
(8.92512 0.461253 0)
(8.84367 0.440502 0)
(8.76505 0.420812 0)
(8.68921 0.40211 0)
(8.61605 0.384329 0)
(8.54551 0.367407 0)
(8.47751 0.351285 0)
(8.41197 0.335911 0)
(8.34883 0.321235 0)
(8.288 0.307209 0)
(8.22943 0.29379 0)
(8.17304 0.280939 0)
(8.11877 0.268616 0)
(8.06655 0.256787 0)
(8.01633 0.245417 0)
(7.96805 0.234476 0)
(7.92165 0.223934 0)
(7.87708 0.213762 0)
(7.8343 0.203934 0)
(7.79325 0.194424 0)
(7.7539 0.185209 0)
(7.71619 0.176264 0)
(7.6801 0.167566 0)
(7.64559 0.159095 0)
(7.61261 0.150829 0)
(7.58115 0.142747 0)
(7.55118 0.134828 0)
(7.52266 0.127053 0)
(7.49558 0.119399 0)
(7.46991 0.111847 0)
(7.44564 0.104376 0)
(7.42276 0.0969631 0)
(7.40125 0.0895864 0)
(7.38111 0.082222 0)
(7.36233 0.0748446 0)
(7.3449 0.0674271 0)
(7.32883 0.0599403 0)
(7.31412 0.0523518 0)
(7.30079 0.044626 0)
(7.28883 0.0367229 0)
(7.27828 0.0285973 0)
(7.26914 0.0201972 0)
(7.26145 0.0114631 0)
(7.25523 0.0023251 0)
(7.2505 -0.00729869 0)
(7.24731 -0.0175055 0)
(7.24569 -0.0284114 0)
(7.24566 -0.0401561 0)
(7.24727 -0.0529085 0)
(7.25052 -0.0668729 0)
(7.25541 -0.0822969 0)
(7.2619 -0.0994785 0)
(7.2699 -0.118772 0)
(7.27921 -0.140589 0)
(7.28952 -0.165389 0)
(7.30036 -0.19365 0)
(7.311 -0.225806 0)
(7.32048 -0.262131 0)
(7.32757 -0.302569 0)
(7.33092 -0.346512 0)
(7.32933 -0.392599 0)
(10.004 0.142123 0)
(10.0556 0.430951 0)
(10.1623 0.710513 0)
(10.3151 0.966356 0)
(10.4981 1.18952 0)
(10.6962 1.37536 0)
(10.8963 1.52225 0)
(11.0866 1.63114 0)
(11.2582 1.70486 0)
(11.4048 1.74747 0)
(11.5232 1.76359 0)
(11.6121 1.75799 0)
(11.6722 1.73517 0)
(11.7051 1.69918 0)
(11.7134 1.65354 0)
(11.6999 1.60114 0)
(11.6675 1.54435 0)
(11.6192 1.48504 0)
(11.5575 1.42465 0)
(11.485 1.36425 0)
(11.4038 1.30466 0)
(11.3158 1.24644 0)
(11.2226 1.18998 0)
(11.1256 1.13555 0)
(11.026 1.08331 0)
(10.9247 1.03333 0)
(10.8226 0.985632 0)
(10.7203 0.9402 0)
(10.6184 0.896984 0)
(10.5174 0.855915 0)
(10.4176 0.816911 0)
(10.3194 0.779883 0)
(10.2229 0.744734 0)
(10.1283 0.71137 0)
(10.0358 0.679694 0)
(9.94544 0.649613 0)
(9.85736 0.621035 0)
(9.77158 0.593873 0)
(9.68814 0.568044 0)
(9.60704 0.543468 0)
(9.52828 0.520068 0)
(9.45187 0.497775 0)
(9.37776 0.476521 0)
(9.30595 0.456241 0)
(9.2364 0.436876 0)
(9.16906 0.418371 0)
(9.10391 0.400672 0)
(9.0409 0.383728 0)
(8.97999 0.367494 0)
(8.92113 0.351925 0)
(8.86429 0.33698 0)
(8.80941 0.322619 0)
(8.75645 0.308804 0)
(8.70537 0.295501 0)
(8.65612 0.282677 0)
(8.60867 0.270299 0)
(8.56298 0.258338 0)
(8.519 0.246764 0)
(8.4767 0.23555 0)
(8.43605 0.224669 0)
(8.39701 0.214096 0)
(8.35955 0.203805 0)
(8.32364 0.193773 0)
(8.28925 0.183976 0)
(8.25635 0.174391 0)
(8.22493 0.164994 0)
(8.19495 0.155763 0)
(8.16641 0.146675 0)
(8.13928 0.137706 0)
(8.11355 0.128833 0)
(8.0892 0.120032 0)
(8.06623 0.111276 0)
(8.04463 0.102539 0)
(8.02438 0.0937939 0)
(8.0055 0.0850098 0)
(7.98797 0.0761546 0)
(7.9718 0.0671927 0)
(7.957 0.0580854 0)
(7.94357 0.0487894 0)
(7.93153 0.0392561 0)
(7.92088 0.0294306 0)
(7.91165 0.0192504 0)
(7.90384 0.00864328 0)
(7.89748 -0.00247412 0)
(7.89259 -0.014199 0)
(7.88918 -0.0266452 0)
(7.88725 -0.0399465 0)
(7.88681 -0.0542603 0)
(7.88784 -0.0697714 0)
(7.8903 -0.0866961 0)
(7.8941 -0.105284 0)
(7.89911 -0.125818 0)
(7.9051 -0.148609 0)
(7.91175 -0.173981 0)
(7.9186 -0.202239 0)
(7.92504 -0.233616 0)
(7.93028 -0.268195 0)
(7.93339 -0.305796 0)
(7.93342 -0.345858 0)
(7.92958 -0.387352 0)
(10.003 0.118963 0)
(10.0416 0.360638 0)
(10.1226 0.597167 0)
(10.2413 0.818568 0)
(10.3879 1.01801 0)
(10.5528 1.19134 0)
(10.7268 1.33643 0)
(10.9012 1.45282 0)
(11.0682 1.54147 0)
(11.222 1.60433 0)
(11.3581 1.64401 0)
(11.4738 1.66348 0)
(11.5677 1.66581 0)
(11.6397 1.65401 0)
(11.6904 1.63084 0)
(11.7211 1.59879 0)
(11.7334 1.56002 0)
(11.7292 1.51636 0)
(11.7103 1.46934 0)
(11.6789 1.42018 0)
(11.6365 1.36987 0)
(11.5849 1.31919 0)
(11.5256 1.26875 0)
(11.46 1.219 0)
(11.3893 1.17028 0)
(11.3146 1.12284 0)
(11.2368 1.07684 0)
(11.1567 1.03239 0)
(11.0751 0.989562 0)
(10.9924 0.948384 0)
(10.9092 0.908857 0)
(10.826 0.870963 0)
(10.743 0.834671 0)
(10.6606 0.799935 0)
(10.5791 0.766706 0)
(10.4987 0.734927 0)
(10.4195 0.704539 0)
(10.3416 0.675481 0)
(10.2653 0.647693 0)
(10.1905 0.621113 0)
(10.1174 0.595681 0)
(10.046 0.57134 0)
(9.97627 0.548032 0)
(9.90834 0.525704 0)
(9.84219 0.504302 0)
(9.77784 0.483776 0)
(9.71527 0.464078 0)
(9.65448 0.445162 0)
(9.59547 0.426983 0)
(9.53822 0.4095 0)
(9.48272 0.392673 0)
(9.42894 0.376462 0)
(9.37686 0.360832 0)
(9.32647 0.345747 0)
(9.27773 0.331175 0)
(9.23062 0.317082 0)
(9.18513 0.303438 0)
(9.14122 0.290213 0)
(9.09886 0.277378 0)
(9.05805 0.264907 0)
(9.01874 0.252771 0)
(8.98093 0.240945 0)
(8.94459 0.229402 0)
(8.9097 0.218119 0)
(8.87624 0.207069 0)
(8.84419 0.196228 0)
(8.81354 0.185572 0)
(8.78427 0.175075 0)
(8.75636 0.164712 0)
(8.72982 0.154458 0)
(8.70462 0.144285 0)
(8.68076 0.134167 0)
(8.65823 0.124075 0)
(8.63703 0.113978 0)
(8.61715 0.103845 0)
(8.5986 0.0936391 0)
(8.58137 0.0833245 0)
(8.56547 0.0728594 0)
(8.55091 0.0621985 0)
(8.53768 0.0512914 0)
(8.5258 0.0400816 0)
(8.51527 0.0285054 0)
(8.5061 0.0164907 0)
(8.4983 0.0039552 0)
(8.49187 -0.0091954 0)
(8.48681 -0.0230691 0)
(8.4831 -0.03779 0)
(8.48072 -0.0535002 0)
(8.47964 -0.0703619 0)
(8.47977 -0.0885577 0)
(8.48102 -0.108291 0)
(8.48321 -0.129779 0)
(8.48613 -0.15325 0)
(8.48945 -0.178921 0)
(8.49278 -0.206972 0)
(8.49558 -0.237509 0)
(8.49723 -0.270501 0)
(8.49705 -0.305722 0)
(8.49436 -0.342682 0)
(8.48861 -0.380597 0)
(10.0023 0.101329 0)
(10.0321 0.306828 0)
(10.095 0.509198 0)
(10.1884 0.701424 0)
(10.3061 0.878371 0)
(10.4421 1.03663 0)
(10.5899 1.17414 0)
(10.7434 1.28999 0)
(10.8967 1.38426 0)
(11.0446 1.45777 0)
(11.183 1.51191 0)
(11.3089 1.54842 0)
(11.4198 1.56927 0)
(11.5147 1.57651 0)
(11.5929 1.57216 0)
(11.6545 1.55814 0)
(11.7 1.53624 0)
(11.7304 1.50803 0)
(11.7468 1.47492 0)
(11.7504 1.43811 0)
(11.7424 1.39861 0)
(11.7242 1.35728 0)
(11.697 1.31482 0)
(11.662 1.2718 0)
(11.6202 1.22868 0)
(11.5727 1.18583 0)
(11.5205 1.14352 0)
(11.4642 1.10197 0)
(11.4047 1.06135 0)
(11.3426 1.02178 0)
(11.2784 0.983344 0)
(11.2128 0.946089 0)
(11.1461 0.910049 0)
(11.0787 0.875236 0)
(11.0109 0.841649 0)
(10.9431 0.809274 0)
(10.8755 0.77809 0)
(10.8083 0.748068 0)
(10.7417 0.719176 0)
(10.6758 0.691377 0)
(10.6108 0.664633 0)
(10.5468 0.638903 0)
(10.4839 0.614146 0)
(10.4221 0.590321 0)
(10.3615 0.567387 0)
(10.3023 0.545303 0)
(10.2443 0.52403 0)
(10.1877 0.503527 0)
(10.1325 0.483758 0)
(10.0787 0.464684 0)
(10.0262 0.446269 0)
(9.9752 0.42848 0)
(9.92559 0.411281 0)
(9.87739 0.39464 0)
(9.83061 0.378525 0)
(9.78524 0.362906 0)
(9.74126 0.347751 0)
(9.69868 0.333033 0)
(9.65748 0.318722 0)
(9.61766 0.304791 0)
(9.5792 0.291214 0)
(9.54209 0.277962 0)
(9.50632 0.265011 0)
(9.47188 0.252334 0)
(9.43876 0.239905 0)
(9.40696 0.227699 0)
(9.37645 0.21569 0)
(9.34723 0.203852 0)
(9.3193 0.192158 0)
(9.29265 0.180582 0)
(9.26727 0.169095 0)
(9.24315 0.157668 0)
(9.2203 0.146272 0)
(9.1987 0.134875 0)
(9.17837 0.123442 0)
(9.15929 0.111937 0)
(9.14148 0.100322 0)
(9.12492 0.0885543 0)
(9.10962 0.076587 0)
(9.09559 0.0643693 0)
(9.08283 0.0518447 0)
(9.07133 0.0389502 0)
(9.06111 0.0256152 0)
(9.05214 0.0117608 0)
(9.04443 -0.00270213 0)
(9.03796 -0.0178734 0)
(9.03271 -0.0338651 0)
(9.02862 -0.0508024 0)
(9.02565 -0.0688237 0)
(9.0237 -0.0880794 0)
(9.02266 -0.10873 0)
(9.02234 -0.130939 0)
(9.02254 -0.154866 0)
(9.02297 -0.180649 0)
(9.02326 -0.208382 0)
(9.023 -0.238089 0)
(9.02168 -0.26968 0)
(9.01879 -0.302921 0)
(9.01386 -0.337393 0)
(9.00649 -0.372492 0)
(10.0018 0.0875212 0)
(10.0254 0.26466 0)
(10.0752 0.439711 0)
(10.1498 0.607621 0)
(10.2452 0.76451 0)
(10.3573 0.907645 0)
(10.4818 1.03522 0)
(10.6143 1.14625 0)
(10.7505 1.24044 0)
(10.8863 1.31808 0)
(11.0182 1.37986 0)
(11.1434 1.42677 0)
(11.2594 1.46003 0)
(11.3646 1.48099 0)
(11.4578 1.49105 0)
(11.5383 1.49161 0)
(11.606 1.48402 0)
(11.661 1.46955 0)
(11.7037 1.44938 0)
(11.7347 1.42456 0)
(11.7547 1.39602 0)
(11.7646 1.36459 0)
(11.7653 1.33097 0)
(11.7576 1.29577 0)
(11.7424 1.2595 0)
(11.7206 1.22258 0)
(11.6929 1.18537 0)
(11.6601 1.14816 0)
(11.6229 1.11118 0)
(11.5819 1.07462 0)
(11.5377 1.03863 0)
(11.4908 1.00332 0)
(11.4417 0.968786 0)
(11.3908 0.935086 0)
(11.3385 0.902267 0)
(11.285 0.870357 0)
(11.2309 0.839373 0)
(11.1762 0.809321 0)
(11.1212 0.780198 0)
(11.0661 0.751995 0)
(11.0112 0.724696 0)
(10.9565 0.698282 0)
(10.9023 0.672732 0)
(10.8485 0.64802 0)
(10.7954 0.624119 0)
(10.743 0.601001 0)
(10.6914 0.578638 0)
(10.6407 0.557 0)
(10.5909 0.536057 0)
(10.5421 0.515779 0)
(10.4943 0.496136 0)
(10.4475 0.4771 0)
(10.4019 0.45864 0)
(10.3573 0.440728 0)
(10.3138 0.423335 0)
(10.2715 0.406434 0)
(10.2303 0.389996 0)
(10.1902 0.373995 0)
(10.1514 0.358404 0)
(10.1136 0.343196 0)
(10.0771 0.328345 0)
(10.0417 0.313826 0)
(10.0075 0.299612 0)
(9.97449 0.285678 0)
(9.94263 0.271998 0)
(9.91193 0.258547 0)
(9.88241 0.245298 0)
(9.85405 0.232225 0)
(9.82685 0.2193 0)
(9.80082 0.206497 0)
(9.77595 0.193787 0)
(9.75224 0.18114 0)
(9.72969 0.168525 0)
(9.70831 0.155909 0)
(9.68808 0.143259 0)
(9.66903 0.130536 0)
(9.65113 0.117703 0)
(9.6344 0.104715 0)
(9.61884 0.0915271 0)
(9.60444 0.0780884 0)
(9.59121 0.0643436 0)
(9.57914 0.0502316 0)
(9.56822 0.0356851 0)
(9.55845 0.02063 0)
(9.54979 0.0049841 0)
(9.54224 -0.011343 0)
(9.53575 -0.0284505 0)
(9.53027 -0.0464458 0)
(9.52573 -0.0654446 0)
(9.52204 -0.0855678 0)
(9.51905 -0.106939 0)
(9.51662 -0.129677 0)
(9.51454 -0.153889 0)
(9.51254 -0.179654 0)
(9.51033 -0.207011 0)
(9.50756 -0.235932 0)
(9.50383 -0.266302 0)
(9.49877 -0.297893 0)
(9.49202 -0.330355 0)
(9.48331 -0.363214 0)
(10.0015 0.0764559 0)
(10.0206 0.230907 0)
(10.0608 0.38385 0)
(10.1213 0.531545 0)
(10.1995 0.67102 0)
(10.2924 0.800084 0)
(10.3972 0.917205 0)
(10.5107 1.02146 0)
(10.6297 1.11243 0)
(10.7512 1.19014 0)
(10.8724 1.25491 0)
(10.9908 1.30731 0)
(11.1043 1.34811 0)
(11.2112 1.37816 0)
(11.3102 1.39843 0)
(11.4001 1.4099 0)
(11.4805 1.41355 0)
(11.551 1.41036 0)
(11.6115 1.40125 0)
(11.662 1.38708 0)
(11.703 1.36864 0)
(11.7348 1.34668 0)
(11.7579 1.32182 0)
(11.773 1.29465 0)
(11.7805 1.26567 0)
(11.7812 1.23532 0)
(11.7756 1.20397 0)
(11.7643 1.17196 0)
(11.748 1.13956 0)
(11.7271 1.10699 0)
(11.7023 1.07445 0)
(11.6739 1.04211 0)
(11.6425 1.01008 0)
(11.6084 0.978476 0)
(11.572 0.947383 0)
(11.5338 0.916865 0)
(11.4939 0.886973 0)
(11.4528 0.857744 0)
(11.4106 0.829203 0)
(11.3676 0.801368 0)
(11.3239 0.774247 0)
(11.2799 0.747843 0)
(11.2357 0.722153 0)
(11.1913 0.697169 0)
(11.147 0.672882 0)
(11.1029 0.649276 0)
(11.0591 0.626335 0)
(11.0156 0.604042 0)
(10.9726 0.582376 0)
(10.9301 0.561317 0)
(10.8882 0.540842 0)
(10.847 0.52093 0)
(10.8065 0.501557 0)
(10.7667 0.482699 0)
(10.7278 0.464334 0)
(10.6896 0.446436 0)
(10.6523 0.428984 0)
(10.616 0.411951 0)
(10.5805 0.395315 0)