/*--------------------------------*- C++ -*----------------------------------*\
| =========                 |                                                 |
| \\      /  F ield         | OpenFOAM: The Open Source CFD Toolbox           |
|  \\    /   O peration     | Version:  2406                                  |
|   \\  /    A nd           | Website:  www.openfoam.com                      |
|    \\/     M anipulation  |                                                 |
\*---------------------------------------------------------------------------*/
FoamFile
{
    version     2.0;
    format      ascii;
    arch        "LSB;label=32;scalar=64";
    class       volScalarField;
    location    "650";
    object      p;
}
// * * * * * * * * * * * * * * * * * * * * * * * * * * * * * * * * * * * * * //

dimensions      [0 2 -2 0 0 0 0];

internalField   nonuniform List<scalar> 
150000
(
236.204
129.064
72.0742
48.7866
35.4322
26.6195
20.8516
16.8779
13.9297
11.6219
9.74636
8.17678
6.83262
5.66062
4.62387
3.6958
2.85659
2.09112
1.38759
0.736615
0.130635
-0.436531
-0.969988
-1.474
-1.95215
-2.40749
-2.84262
-3.25978
-3.66092
-4.04772
-4.42167
-4.78406
-5.13605
-5.47866
-5.81279
-6.13926
-6.45879
-6.77205
-7.07963
-7.38206
-7.67983
-7.9734
-8.26316
-8.54949
-8.83275
-9.11323
-9.39124
-9.66706
-9.94093
-10.2131
-10.4838
-10.7532
-11.0215
-11.289
-11.5557
-11.8219
-12.0878
-12.3534
-12.6189
-12.8846
-13.1505
-13.4167
-13.6835
-13.951
-14.2192
-14.4884
-14.7587
-15.0302
-15.3031
-15.5775
-15.8536
-16.1315
-16.4115
-16.6936
-16.9782
-17.2653
-17.5552
-17.8481
-18.1443
-18.444
-18.7475
-19.0551
-19.3673
-19.6842
-20.0065
-20.3345
-20.6688
-21.01
-21.3587
-21.7156
-22.0816
-22.4577
-22.8452
-23.2462
-23.6656
-24.1157
-24.6218
-25.2081
-25.9455
-27.7683
135.369
95.7431
66.1491
49.5684
38.1519
29.7039
23.6641
19.2756
15.9385
13.3055
11.1684
9.39058
7.87994
6.5735
5.42693
4.40803
3.49284
2.66312
1.90473
1.20649
0.559477
-0.0435714
-0.608612
-1.14058
-1.64363
-2.12123
-2.57637
-3.01159
-3.42909
-3.83076
-4.21828
-4.59309
-4.95647
-5.30957
-5.65337
-5.98879
-6.31663
-6.6376
-6.95236
-7.2615
-7.56554
-7.86498
-8.16025
-8.45177
-8.7399
-9.02499
-9.30735
-9.58728
-9.86506
-10.1409
-10.4151
-10.6879
-10.9594
-11.23
-11.4996
-11.7686
-12.0372
-12.3054
-12.5735
-12.8416
-13.1098
-13.3783
-13.6473
-13.9169
-14.1873
-14.4586
-14.7309
-15.0044
-15.2792
-15.5556
-15.8337
-16.1136
-16.3955
-16.6796
-16.9662
-17.2553
-17.5473
-17.8424
-18.1408
-18.4428
-18.7488
-19.059
-19.3739
-19.6939
-20.0194
-20.3511
-20.6895
-21.0354
-21.3897
-21.7534
-22.1279
-22.515
-22.917
-23.3377
-23.7832
-24.2644
-24.7985
-25.4113
-26.2034
-27.5291
86.8442
75.6118
60.9634
48.821
39.2083
31.5819
25.7059
21.1918
17.6497
14.8071
12.4804
10.539
8.89016
7.46742
6.22281
5.12084
4.1348
3.24422
2.43319
1.68913
1.00196
0.36351
-0.2329
-0.792816
-1.32087
-1.82095
-2.29638
-2.74997
-3.18418
-3.60109
-4.00255
-4.39016
-4.76531
-5.12927
-5.48312
-5.82785
-6.16434
-6.49336
-6.81563
-7.13178
-7.4424
-7.748
-8.04906
-8.34602
-8.63929
-8.92923
-9.21618
-9.50046
-9.78235
-10.0621
-10.3401
-10.6164
-10.8913
-11.1651
-11.4378
-11.7098
-11.9812
-12.2522
-12.5229
-12.7935
-13.0642
-13.3352
-13.6065
-13.8784
-14.1509
-14.4243
-14.6988
-14.9744
-15.2513
-15.5297
-15.8097
-16.0916
-16.3756
-16.6617
-16.9503
-17.2415
-17.5355
-17.8327
-18.1333
-18.4376
-18.7459
-19.0587
-19.3762
-19.699
-20.0276
-20.3626
-20.7048
-21.0549
-21.4141
-21.7837
-22.1652
-22.561
-22.9739
-23.4082
-23.8697
-24.3667
-24.9091
-25.5068
-26.1792
-26.9548
66.2099
62.5653
54.3424
45.5756
37.995
31.6251
26.375
22.1109
18.638
15.7791
13.3967
11.3853
9.66433
8.17314
6.86583
5.70745
4.67108
3.73575
2.88492
2.10541
1.3866
0.719828
0.0979778
-0.48486
-1.03363
-1.5525
-2.04502
-2.51421
-2.96268
-3.39268
-3.80617
-4.20487
-4.59028
-4.96373
-5.32639
-5.67932
-6.02344
-6.35959
-6.68853
-7.01093
-7.3274
-7.63851
-7.94476
-8.24661
-8.54449
-8.83879
-9.12987
-9.41806
-9.70367
-9.98699
-10.2683
-10.5478
-10.8258
-11.1025
-11.378
-11.6527
-11.9266
-12.2001
-12.4732
-12.7461
-13.019
-13.2921
-13.5655
-13.8393
-14.1138
-14.3892
-14.6654
-14.9428
-15.2215
-15.5016
-15.7834
-16.067
-16.3526
-16.6404
-16.9306
-17.2234
-17.5192
-17.818
-18.1203
-18.4263
-18.7364
-19.0509
-19.3702
-19.6949
-20.0255
-20.3626
-20.707
-21.0595
-21.4211
-21.7933
-22.1776
-22.5759
-22.9908
-23.4252
-23.8825
-24.3657
-24.8756
-25.406
-25.9377
-26.4275
53.5573
52.2278
47.5656
41.6071
35.9129
30.7881
26.2904
22.4395
19.1777
16.4132
14.0584
12.0383
10.2902
8.76357
7.418
6.22154
5.14878
4.17943
3.29719
2.48889
1.74377
1.05299
0.409237
-0.193596
-0.760645
-1.29625
-1.80412
-2.28742
-2.74888
-3.19087
-3.61544
-4.02441
-4.41934
-4.80165
-5.17256
-5.53318
-5.88449
-6.22737
-6.56261
-6.89093
-7.21297
-7.52932
-7.8405
-8.14702
-8.44931
-8.74777
-9.0428
-9.33474
-9.6239
-9.9106
-10.1951
-10.4777
-10.7586
-11.0381
-11.3163
-11.5935
-11.8699
-12.1457
-12.421
-12.6961
-12.9711
-13.2462
-13.5215
-13.7972
-14.0735
-14.3506
-14.6285
-14.9076
-15.1878
-15.4695
-15.7528
-16.0378
-16.3248
-16.614
-16.9055
-17.1997
-17.4967
-17.7968
-18.1003
-18.4075
-18.7187
-19.0343
-19.3547
-19.6804
-20.0119
-20.3498
-20.6947
-21.0476
-21.4093
-21.7809
-22.1636
-22.5588
-22.9679
-23.392
-23.8317
-24.2851
-24.7464
-25.2012
-25.6215
-25.96
44.8583
44.4095
41.7413
37.7481
33.5333
29.4781
25.7195
22.3447
19.3734
16.7773
14.5123
12.5326
10.7952
9.26159
7.89928
6.68098
5.58414
4.59018
3.68378
2.85232
2.0853
1.37402
0.711153
0.0905675
-0.492943
-1.04381
-1.56581
-2.06222
-2.53584
-2.98912
-3.42419
-3.84293
-4.24698
-4.6378
-5.01666
-5.38472
-5.74301
-6.09243
-6.43382
-6.76793
-7.09541
-7.4169
-7.73293
-8.04402
-8.35064
-8.65321
-8.95213
-9.24775
-9.54042
-9.83045
-10.1181
-10.4037
-10.6875
-10.9697
-11.2505
-11.5302
-11.809
-12.0871
-12.3646
-12.6418
-12.9187
-13.1957
-13.4729
-13.7503
-14.0283
-14.307
-14.5865
-14.867
-15.1487
-15.4317
-15.7163
-16.0025
-16.2907
-16.581
-16.8736
-17.1687
-17.4666
-17.7676
-18.0718
-18.3796
-18.6913
-19.0073
-19.328
-19.6537
-19.9849
-20.3222
-20.6661
-21.0173
-21.3765
-21.7443
-22.1215
-22.5087
-22.906
-23.313
-23.7275
-24.1449
-24.5557
-24.9433
-25.2812
-25.5314
38.6743
38.5461
36.9307
34.1989
31.0745
27.8924
24.8027
21.9101
19.2695
16.892
14.7657
12.8694
11.1778
9.66549
8.30847
7.0854
5.97768
4.96929
4.04662
3.19812
2.41399
1.68594
1.00691
0.37091
-0.227207
-0.791845
-1.3268
-1.83536
-2.32037
-2.78433
-3.22941
-3.65753
-4.07037
-4.46943
-4.85604
-5.23138
-5.59651
-5.95237
-6.29983
-6.63966
-6.97255
-7.29913
-7.61998
-7.93564
-8.24657
-8.55324
-8.85603
-9.15533
-9.45149
-9.74484
-10.0357
-10.3243
-10.6109
-10.8958
-11.1792
-11.4614
-11.7425
-12.0228
-12.3025
-12.5816
-12.8605
-13.1394
-13.4182
-13.6974
-13.9769
-14.2571
-14.538
-14.8198
-15.1027
-15.3869
-15.6726
-15.9598
-16.2489
-16.54
-16.8333
-17.1291
-17.4275
-17.7288
-18.0332
-18.3411
-18.6527
-18.9683
-19.2882
-19.6129
-19.9427
-20.2779
-20.6191
-20.9666
-21.3209
-21.6821
-22.0506
-22.4259
-22.8073
-23.1929
-23.5791
-23.9594
-24.3235
-24.6556
-24.9336
-25.1303
34.0271
33.998
32.9496
31.0267
28.6905
26.1956
23.6752
21.2293
18.9234
16.7881
14.832
13.0515
11.4357
9.9704
8.64019
7.42989
6.32536
5.31377
4.38371
3.5252
2.72951
1.98908
1.29737
0.648701
0.0381581
-0.538525
-1.08506
-1.60469
-2.10024
-2.5742
-3.02875
-3.46583
-3.88714
-4.29421
-4.68838
-5.07086
-5.44274
-5.80498
-6.15848
-6.50401
-6.84229
-7.17398
-7.49968
-7.81992
-8.1352
-8.44599
-8.75269
-9.05571
-9.35539
-9.65208
-9.94609
-10.2377
-10.5272
-10.8148
-11.1009
-11.3855
-11.6689
-11.9514
-12.2332
-12.5143
-12.7951
-13.0757
-13.3563
-13.637
-13.918
-14.1995
-14.4817
-14.7647
-15.0487
-15.3339
-15.6204
-15.9084
-16.1981
-16.4897
-16.7834
-17.0794
-17.3779
-17.6791
-17.9832
-18.2905
-18.6012
-18.9156
-19.234
-19.5566
-19.8837
-20.2156
-20.5525
-20.8945
-21.2418
-21.5942
-21.9513
-22.3123
-22.6753
-23.0378
-23.3951
-23.7404
-24.0637
-24.3514
-24.5864
-24.7496
30.3623
30.3584
29.6353
28.2407
26.4682
24.5005
22.4457
20.3903
18.3976
16.5056
14.7335
13.0885
11.5701
10.1728
8.88847
7.70756
6.62033
5.61729
4.68956
3.82897
3.02817
2.2806
1.58043
0.922501
0.302279
-0.284239
-0.84058
-1.36985
-1.8748
-2.35785
-2.82116
-3.26664
-3.69599
-4.11072
-4.5122
-4.90164
-5.28013
-5.64867
-6.00814
-6.35935
-6.70303
-7.03984
-7.3704
-7.69527
-8.01494
-8.3299
-8.64057
-8.94735
-9.25061
-9.5507
-9.84793
-10.1426
-10.435
-10.7254
-11.014
-11.3011
-11.5869
-11.8716
-12.1554
-12.4386
-12.7212
-13.0035
-13.2857
-13.5679
-13.8503
-14.1331
-14.4164
-14.7004
-14.9853
-15.2713
-15.5585
-15.847
-16.1371
-16.4289
-16.7227
-17.0185
-17.3166
-17.6172
-17.9204
-18.2266
-18.5358
-18.8482
-19.1642
-19.4837
-19.8071
-20.1344
-20.4656
-20.8007
-21.1394
-21.4813
-21.8254
-22.1705
-22.5142
-22.8534
-23.1832
-23.4969
-23.7858
-24.0386
-24.2424
-24.3842
27.3746
27.3748
26.8501
25.8079
24.439
22.8716
21.1895
19.4637
17.7504
16.0876
14.4988
12.9973
11.5888
10.2741
9.05041
7.91295
6.85582
5.87266
4.95705
4.10275
3.30391
2.55512
1.85143
1.18835
0.561848
-0.0317018
-0.595539
-1.13256
-1.64536
-2.13624
-2.60727
-3.06032
-3.49702
-3.91889
-4.32724
-4.72331
-5.10816
-5.48279
-5.8481
-6.20488
-6.55389
-6.89579
-7.23121
-7.5607
-7.88479
-8.20394
-8.51861
-8.82919
-9.13607
-9.43959
-9.74009
-10.0379
-10.3332
-10.6264
-10.9176
-11.2072
-11.4954
-11.7823
-12.0682
-12.3533
-12.6377
-12.9217
-13.2054
-13.489
-13.7727
-14.0567
-14.3411
-14.626
-14.9117
-15.1982
-15.4858
-15.7746
-16.0649
-16.3566
-16.65
-16.9454
-17.2427
-17.5422
-17.8441
-18.1485
-18.4555
-18.7653
-19.078
-19.3937
-19.7124
-20.034
-20.3585
-20.6855
-21.0145
-21.3447
-21.6751
-22.0037
-22.3282
-22.645
-22.9496
-23.2359
-23.4962
-23.7217
-23.9029
-24.0307
24.8799
24.8789
24.482
23.6813
22.6044
21.3412
19.9548
18.502
17.0303
15.5747
14.1593
12.7999
11.5058
10.2816
9.12829
8.04471
7.02802
6.07452
5.17998
4.34
3.55022
2.8064
2.10453
1.44088
0.812008
0.214751
-0.353768
-0.896164
-1.4148
-1.91183
-2.38919
-2.84862
-3.29171
-3.71989
-4.13446
-4.5366
-4.92736
-5.30773
-5.67858
-6.04071
-6.39487
-6.74172
-7.08189
-7.41593
-7.74437
-8.0677
-8.38634
-8.70073
-9.01123
-9.3182
-9.62198
-9.92287
-10.2212
-10.5171
-10.811
-11.1031
-11.3936
-11.6827
-11.9707
-12.2577
-12.5439
-12.8295
-13.1147
-13.3997
-13.6846
-13.9697
-14.2549
-14.5406
-14.8269
-15.1139
-15.4017
-15.6906
-15.9807
-16.272
-16.5649
-16.8593
-17.1555
-17.4535
-17.7536
-18.0557
-18.36
-18.6665
-18.9754
-19.2864
-19.5996
-19.9148
-20.2317
-20.5498
-20.8684
-21.1865
-21.5027
-21.8151
-22.1211
-22.4173
-22.6994
-22.9621
-23.1991
-23.4033
-23.5678
-23.6863
22.7582
22.7553
22.4454
21.8149
20.9527
19.922
18.7699
17.5411
16.2749
15.0019
13.7449
12.5202
11.3387
10.2072
9.12927
8.10607
7.13712
6.22079
5.3547
4.53605
3.7618
3.02883
2.33408
1.67456
1.04745
0.450117
-0.119924
-0.664952
-1.18707
-1.6882
-2.17012
-2.63443
-3.08261
-3.51602
-3.93586
-4.34328
-4.73928
-5.12481
-5.50072
-5.86781
-6.22678
-6.57831
-6.92299
-7.2614
-7.59405
-7.92142
-8.24395
-8.56205
-8.87611
-9.18648
-9.4935
-9.79747
-10.0987
-10.3974
-10.694
-10.9885
-11.2813
-11.5726
-11.8626
-12.1515
-12.4394
-12.7266
-13.0133
-13.2995
-13.5856
-13.8715
-14.1576
-14.4439
-14.7306
-15.0178
-15.3057
-15.5945
-15.8841
-16.1749
-16.4668
-16.7601
-17.0547
-17.3509
-17.6487
-17.9481
-18.2491
-18.5519
-18.8562
-19.1621
-19.4693
-19.7775
-20.0863
-20.3951
-20.7029
-21.0088
-21.3111
-21.6079
-21.8967
-22.1742
-22.4366
-22.6793
-22.8973
-23.085
-23.2372
-23.3496
20.9277
20.9236
20.6752
20.1684
19.4667
18.6154
17.6496
16.6041
15.5109
14.3964
13.281
12.1803
11.1058
10.0653
9.06368
8.10385
7.18693
6.31284
5.48065
4.68884
3.9355
3.21853
2.53568
1.88471
1.26341
0.669634
0.101336
-0.443412
-0.966418
-1.46937
-1.95384
-2.42126
-2.87299
-3.31026
-3.7342
-4.14586
-4.5462
-4.93612
-5.31643
-5.68788
-6.05117
-6.40694
-6.75577
-7.09823
-7.43481
-7.76599
-8.0922
-8.41385
-8.73132
-9.04496
-9.35511
-9.66207
-9.96613
-10.2676
-10.5667
-10.8636
-11.1587
-11.4521
-11.744
-12.0347
-12.3243
-12.613
-12.901
-13.1884
-13.4754
-13.7623
-14.049
-14.3358
-14.6227
-14.9101
-15.1978
-15.4862
-15.7752
-16.0651
-16.3559
-16.6476
-16.9404
-17.2344
-17.5295
-17.8258
-18.1232
-18.4218
-18.7213
-19.0215
-19.3223
-19.6232
-19.9236
-20.2229
-20.52
-20.8139
-21.1029
-21.3851
-21.6581
-21.9189
-22.1643
-22.3903
-22.5928
-22.7676
-22.9108
-23.0193
19.3304
19.3256
19.1226
18.7076
18.1281
17.4169
16.6
15.7047
14.7569
13.7786
12.788
11.7995
10.8242
9.87012
8.94312
8.04694
7.18381
6.35477
5.55996
4.79887
4.07054
3.37365
2.70673
2.06817
1.4563
0.869466
0.306037
-0.235567
-0.756857
-1.25927
-1.74415
-2.21278
-2.66634
-3.10593
-3.5326
-3.9473
-4.35091
-4.74426
-5.12811
-5.50318
-5.87012
-6.22955
-6.58202
-6.92807
-7.26818
-7.60282
-7.9324
-8.25732
-8.57796
-8.89466
-9.20774
-9.51751
-9.82426
-10.1283
-10.4297
-10.729
-11.0262
-11.3216
-11.6154
-11.9077
-12.1989
-12.489
-12.7782
-13.0667
-13.3546
-13.6421
-13.9294
-14.2165
-14.5036
-14.7908
-15.0782
-15.366
-15.6542
-15.943
-16.2323
-16.5223
-16.813
-17.1045
-17.3966
-17.6895
-17.983
-18.277
-18.5714
-18.8658
-19.1599
-19.4532
-19.7453
-20.0351
-20.3219
-20.6042
-20.8807
-21.1494
-21.4082
-21.6544
-21.8852
-22.0973
-22.2873
-22.4521
-22.5886
-22.6946
17.9235
17.9185
17.7497
17.4047
16.9197
16.3191
15.6222
14.8504
14.0245
13.163
12.2817
11.3933
10.5085
9.63503
8.77907
7.94488
7.13538
6.35235
5.59672
4.86875
4.16817
3.49437
2.84647
2.22341
1.62401
1.04706
0.491287
-0.0445439
-0.561661
-1.06125
-1.54445
-2.01235
-2.46597
-2.90629
-3.33423
-3.75063
-4.1563
-4.552
-4.93843
-5.31624
-5.68604
-6.04841
-6.40388
-6.75295
-7.09608
-7.43371
-7.76624
-8.09406
-8.41753
-8.73697
-9.05272
-9.36505
-9.67425
-9.98059
-10.2843
-10.5856
-10.8848
-11.182
-11.4775
-11.7714
-12.064
-12.3553
-12.6456
-12.935
-13.2237
-13.5117
-13.7993
-14.0866
-14.3736
-14.6606
-14.9475
-15.2345
-15.5217
-15.8091
-16.0968
-16.3848
-16.6732
-16.9619
-17.2509
-17.5402
-17.8295
-18.1188
-18.4078
-18.6962
-18.9836
-19.2694
-19.5531
-19.8339
-20.1106
-20.3821
-20.647
-20.9035
-21.1496
-21.3831
-21.6014
-21.8019
-21.9819
-22.1389
-22.2705
-22.3753
16.6746
16.6696
16.5274
16.2367
15.826
15.3136
14.7142
14.0443
13.321
12.5595
11.7734
10.9739
10.1707
9.37142
8.58197
7.8069
7.04952
6.31211
5.59612
4.90238
4.23117
3.58241
2.9557
2.35045
1.76589
1.20119
0.655418
0.127626
-0.383145
-0.877848
-1.35742
-1.82276
-2.27474
-2.7142
-3.14193
-3.55869
-3.96518
-4.36208
-4.75003
-5.12962
-5.50141
-5.86592
-6.22365
-6.57507
-6.92061
-7.26068
-7.59566
-7.92592
-8.2518
-8.57361
-8.89165
-9.20622
-9.51758
-9.82598
-10.1317
-10.4349
-10.7358
-11.0346
-11.3316
-11.6269
-11.9206
-12.213
-12.5042
-12.7943
-13.0836
-13.372
-13.6598
-13.9471
-14.2339
-14.5204
-14.8066
-15.0927
-15.3786
-15.6645
-15.9504
-16.2362
-16.5221
-16.8078
-17.0935
-17.3789
-17.6639
-17.9484
-18.2319
-18.5143
-18.795
-19.0735
-19.3492
-19.6212
-19.8885
-20.15
-20.4043
-20.6498
-20.8847
-21.1072
-21.3149
-21.5059
-21.6778
-21.8287
-21.9569
-22.0612
15.5586
15.5538
15.4326
15.1848
14.8333
14.3922
13.8725
13.2874
12.6505
11.9747
11.2713
10.5504
9.82051
9.08874
8.36084
7.64136
6.93375
6.24061
5.56375
4.90437
4.26319
3.64052
3.03637
2.4505
1.8825
1.33185
0.797905
0.279991
-0.222618
-0.710664
-1.18489
-1.64603
-2.09482
-2.53194
-2.95808
-3.37388
-3.77997
-4.17694
-4.56535
-4.94573
-5.31858
-5.6844
-6.04361
-6.39666
-6.74394
-7.08583
-7.4227
-7.75486
-8.08266
-8.40639
-8.72632
-9.04274
-9.3559
-9.66603
-9.97337
-10.2781
-10.5805
-10.8807
-11.1789
-11.4753
-11.7701
-12.0633
-12.3552
-12.6459
-12.9355
-13.2241
-13.5119
-13.799
-14.0854
-14.3712
-14.6566
-14.9415
-15.2261
-15.5103
-15.7941
-16.0776
-16.3608
-16.6435
-16.9256
-17.2071
-17.4878
-17.7673
-18.0455
-18.3219
-18.5961
-18.8675
-19.1355
-19.3992
-19.6578
-19.91
-20.1547
-20.3904
-20.6155
-20.8285
-21.0274
-21.2104
-21.3758
-21.5221
-21.6479
-21.7524
14.5559
14.5514
14.447
14.2336
13.9298
13.5468
13.0929
12.5786
12.015
11.4127
10.7813
10.1296
9.46524
8.79464
8.12324
7.45546
6.7948
6.14399
5.50506
4.87949
4.26828
3.67206
3.09114
2.52558
1.97527
1.43992
0.919162
0.412535
-0.0804778
-0.560427
-1.02788
-1.48343
-1.92766
-2.36113
-2.78442
-3.19807
-3.60262
-3.99857
-4.38642
-4.76664
-5.13966
-5.50593
-5.86583
-6.21977
-6.5681
-6.91117
-7.24931
-7.58282
-7.91202
-8.23717
-8.55853
-8.87638
-9.19093
-9.50242
-9.81106
-10.1171
-10.4206
-10.7219
-11.0211
-11.3183
-11.6138
-11.9077
-12.2
-12.491
-12.7808
-13.0694
-13.357
-13.6436
-13.9295
-14.2145
-14.4988
-14.7824
-15.0654
-15.3477
-15.6295
-15.9105
-16.1908
-16.4703
-16.7489
-17.0265
-17.3027
-17.5774
-17.8503
-18.1209
-18.3888
-18.6534
-18.9141
-19.1701
-19.4205
-19.6643
-19.9003
-20.1274
-20.344
-20.5488
-20.7402
-20.9167
-21.077
-21.2197
-21.344
-21.449
13.6506
13.6465
13.5557
13.3702
13.1055
12.7703
12.3711
11.9164
11.4151
10.8759
10.3073
9.71654
9.11054
8.49513
7.87532
7.25531
6.63854
6.02776
5.42513
4.83231
4.25051
3.68057
3.12303
2.57821
2.0462
1.52695
1.02029
0.525958
0.0436135
-0.427128
-0.886688
-1.33551
-1.77405
-2.20276
-2.62212
-3.03257
-3.43455
-3.82851
-4.21487
-4.59402
-4.96636
-5.33227
-5.6921
-6.0462
-6.39489
-6.73849
-7.0773
-7.41159
-7.74164
-8.06771
-8.39003
-8.70885
-9.02437
-9.33682
-9.64639
-9.95327
-10.2576
-10.5597
-10.8595
-11.1574
-11.4533
-11.7475
-12.0401
-12.3311
-12.6208
-12.9092
-13.1964
-13.4825
-13.7675
-14.0515
-14.3346
-14.6168
-14.898
-15.1784
-15.4578
-15.7363
-16.0137
-16.29
-16.565
-16.8385
-17.1104
-17.3803
-17.648
-17.913
-18.1749
-18.433
-18.6869
-18.9358
-19.1787
-19.4149
-19.6432
-19.8626
-20.0718
-20.2696
-20.4547
-20.6259
-20.7821
-20.9222
-21.0454
-21.1514
12.83
12.8262
12.7467
12.5841
12.3515
12.0561
11.7028
11.2984
10.8502
10.3656
9.8516
9.31463
8.76064
8.19491
7.62202
7.04593
6.46991
5.89671
5.32852
4.76708
4.21375
3.66952
3.13513
2.61106
2.09759
1.59485
1.10284
0.621463
0.150531
-0.310196
-0.761005
-1.20221
-1.63417
-2.05723
-2.47175
-2.8781
-3.27666
-3.66777
-4.05181
-4.4291
-4.79999
-5.1648
-5.52384
-5.87743
-6.22583
-6.56935
-6.90823
-7.24274
-7.57312
-7.89959
-8.22239
-8.54173
-8.8578
-9.1708
-9.48091
-9.7883
-10.0931
-10.3956
-10.6958
-10.9939
-11.29
-11.5843
-11.8769
-12.1678
-12.4571
-12.7451
-13.0317
-13.3169
-13.601
-13.8838
-14.1655
-14.4461
-14.7255
-15.0037
-15.2808
-15.5566
-15.831
-16.104
-16.3754
-16.645
-16.9126
-17.1778
-17.4405
-17.7001
-17.9562
-18.2084
-18.4559
-18.6981
-18.9343
-19.1636
-19.385
-19.5977
-19.8004
-19.9923
-20.1721
-20.339
-20.4919
-20.63
-20.7528
-20.8599
12.0836
12.0801
12.0099
11.8663
11.6606
11.3984
11.0838
10.7221
10.3196
9.88219
9.41591
8.92633
8.41865
7.89757
7.36728
6.8314
6.29308
5.75494
5.21917
4.68756
4.16153
3.64221
3.13043
2.62683
2.13183
1.64571
1.1686
0.700551
0.2415
-0.208667
-0.650121
-1.08307
-1.50776
-1.92446
-2.33343
-2.73497
-3.12938
-3.51693
-3.89794
-4.27268
-4.64144
-5.0045
-5.36212
-5.71458
-6.06211
-6.40496
-6.74338
-7.07758
-7.40778
-7.73418
-8.057
-8.37641
-8.69261
-9.00576
-9.31603
-9.62357
-9.92855
-10.2311
-10.5313
-10.8294
-11.1254
-11.4195
-11.7118
-12.0023
-12.2911
-12.5784
-12.8641
-13.1484
-13.4313
-13.7128
-13.993
-14.2717
-14.5492
-14.8252
-15.0998
-15.3728
-15.6443
-15.914
-16.1818
-16.4475
-16.7109
-16.9716
-17.2295
-17.484
-17.7347
-17.9812
-18.2228
-18.459
-18.689
-18.9121
-19.1274
-19.3341
-19.5313
-19.7181
-19.8935
-20.0568
-20.2071
-20.3438
-20.4665
-20.5748
11.4026
11.3995
11.337
11.2093
11.0261
10.792
10.5102
10.1852
9.82188
9.42549
9.00101
8.55328
8.08684
7.60588
7.11416
6.61504
6.11144
5.60588
5.10049
4.59705
4.09703
3.6016
3.11172
2.62809
2.15127
1.68164
1.21946
0.764875
0.317946
-0.121337
-0.553043
-0.977289
-1.39423
-1.80404
-2.20692
-2.60308
-2.99276
-3.37618
-3.75358
-4.1252
-4.49126
-4.85201
-5.20766
-5.55844
-5.90457
-6.24626
-6.58372
-6.91713
-7.24669
-7.57258
-7.89499
-8.21407
-8.52999
-8.84291
-9.15298
-9.46033
-9.7651
-10.0674
-10.3674
-10.6652
-10.9608
-11.2544
-11.5461
-11.836
-12.1241
-12.4105
-12.6952
-12.9783
-13.2599
-13.5399
-13.8183
-14.0952
-14.3706
-14.6443
-14.9163
-15.1866
-15.455
-15.7215
-15.9857
-16.2476
-16.5069
-16.7633
-17.0165
-17.2662
-17.5119
-17.753
-17.9893
-18.2199
-18.4443
-18.6619
-18.8718
-19.0733
-19.2657
-19.4481
-19.6198
-19.7801
-19.9284
-20.0641
-20.1869
-20.2966
10.7799
10.777
10.721
10.6068
10.4426
10.2324
9.97867
9.68504
9.35572
8.99502
8.60723
8.1965
7.76682
7.32188
6.86509
6.39949
5.92781
5.45242
4.97537
4.49841
4.02301
3.55038
3.08153
2.61723
2.15813
1.7047
1.25728
0.816119
0.381374
-0.0468779
-0.46862
-0.883884
-1.29274
-1.6953
-2.09169
-2.48206
-2.86658
-3.24541
-3.61875
-3.98677
-4.34967
-4.70764
-5.06086
-5.40952
-5.7538
-6.09388
-6.42994
-6.76214
-7.09065
-7.41564
-7.73724
-8.05562
-8.37091
-8.68326
-8.99278
-9.29961
-9.60386
-9.90565
-10.2051
-10.5023
-10.7973
-11.0902
-11.3811
-11.6701
-11.9572
-12.2425
-12.526
-12.8078
-13.0879
-13.3662
-13.6429
-13.9178
-14.1909
-14.4623
-14.7318
-14.9992
-15.2646
-15.5278
-15.7886
-16.0468
-16.3021
-16.5544
-16.8032
-17.0483
-17.2892
-17.5255
-17.7567
-17.9823
-18.2016
-18.4142
-18.6193
-18.8163
-19.0044
-19.1831
-19.3517
-19.5096
-19.6563
-19.7914
-19.9145
-20.0256
10.2091
10.2065
10.1561
10.0533
9.90534
9.71553
9.48588
9.21938
8.91956
8.59006
8.23454
7.85659
7.45969
7.04711
6.62191
6.18685
5.74446
5.29694
4.84625
4.39409
3.94189
3.4909
3.04212
2.59641
2.15445
1.71679
1.28384
0.855931
0.433289
0.0160718
-0.39563
-0.801775
-1.20237
-1.59745
-1.98708
-2.37136
-2.75039
-3.1243
-3.49322
-3.85729
-4.21665
-4.57146
-4.92187
-5.26803
-5.61008
-5.94819
-6.28248
-6.61312
-6.94023
-7.26395
-7.58442
-7.90177
-8.21611
-8.52756
-8.83624
-9.14226
-9.44572
-9.74672
-10.0453
-10.3417
-10.6358
-10.9278
-11.2177
-11.5056
-11.7916
-12.0756
-12.3578
-12.6381
-12.9165
-13.1931
-13.4678
-13.7406
-14.0115
-14.2805
-14.5473
-14.812
-15.0744
-15.3344
-15.5917
-15.8463
-16.0979
-16.3461
-16.5908
-16.8315
-17.068
-17.2997
-17.5263
-17.7473
-17.9621
-18.1702
-18.371
-18.564
-18.7485
-18.924
-19.09
-19.2459
-19.3914
-19.526
-19.6496
-19.762
9.68522
9.68276
9.63721
9.54415
9.41008
9.23782
9.02897
8.78599
8.51189
8.20974
7.88267
7.5338
7.16617
6.78267
6.38604
5.97879
5.56322
5.1414
4.71517
4.28615
3.85576
3.4252
2.99551
2.56757
2.14209
1.71968
1.30081
0.885869
0.475142
0.0688518
-0.332845
-0.729847
-1.1221
-1.50957
-1.89229
-2.27029
-2.64362
-3.01236
-3.3766
-3.73644
-4.09199
-4.44336
-4.79066
-5.13401
-5.47354
-5.80935
-6.14159
-6.47035
-6.79576
-7.11793
-7.43698
-7.753
-8.06611
-8.37641
-8.68398
-8.98894
-9.29135
-9.59131
-9.88889
-10.1842
-10.4772
-10.7681
-11.0568
-11.3435
-11.6281
-11.9107
-12.1913
-12.47
-12.7467
-13.0214
-13.2941
-13.5648
-13.8334
-14.0998
-14.364
-14.6259
-14.8853
-15.1422
-15.3962
-15.6473
-15.8952
-16.1397
-16.3804
-16.6171
-16.8494
-17.077
-17.2993
-17.5161
-17.7267
-17.9308
-18.1278
-18.3172
-18.4986
-18.6713
-18.8351
-18.9894
-19.1339
-19.2683
-19.3924
-19.5062
9.20368
9.2014
9.15997
9.07531
8.95322
8.79612
8.6053
8.38282
8.13121
7.85311
7.55119
7.22817
6.8867
6.52935
6.15856
5.77661
5.38559
4.98742
4.58384
4.17637
3.76639
3.35507
2.94346
2.53243
2.12272
1.71498
1.30973
0.907384
0.508298
0.112741
-0.279077
-0.666999
-1.05092
-1.43076
-1.80649
-2.1781
-2.5456
-2.90902
-3.26841
-3.62383
-3.97535
-4.32305
-4.66702
-5.00733
-5.34409
-5.67738
-6.0073
-6.33395
-6.65741
-6.97779
-7.29517
-7.60963
-7.92128
-8.23019
-8.53643
-8.8401
-9.14126
-9.43998
-9.73632
-10.0303
-10.3221
-10.6117
-10.8991
-11.1843
-11.4674
-11.7485
-12.0275
-12.3044
-12.5792
-12.852
-13.1226
-13.3911
-13.6573
-13.9213
-14.1829
-14.442
-14.6985
-14.9522
-15.2031
-15.4508
-15.6952
-15.9361
-16.1731
-16.406
-16.6344
-16.858
-17.0765
-17.2894
-17.4963
-17.6968
-17.8904
-18.0767
-18.2552
-18.4256
-18.5874
-18.7404
-18.8841
-19.0184
-19.1432
-19.2582
8.76067
8.75856
8.72068
8.64329
8.53158
8.38765
8.21254
8.00797
7.77611
7.5192
7.23957
6.93956
6.6215
6.28768
5.94026
5.58131
5.21274
4.83632
4.45367
4.06623
3.67531
3.28206
2.88749
2.49249
2.09782
1.70413
1.31197
0.921804
0.534022
0.148937
-0.233196
-0.612176
-0.987848
-1.3601
-1.72884
-2.09403
-2.45563
-2.81364
-3.16808
-3.51895
-3.86631
-4.21019
-4.55065
-4.88775
-5.22156
-5.55214
-5.87956
-6.20389
-6.52522
-6.8436
-7.15912
-7.47183
-7.78182
-8.08915
-8.39388
-8.69608
-8.9958
-9.2931
-9.58804
-9.88066
-10.171
-10.4591
-10.745
-11.0287
-11.3102
-11.5896
-11.8669
-12.1419
-12.4149
-12.6856
-12.9541
-13.2203
-13.4842
-13.7457
-14.0046
-14.261
-14.5146
-14.7654
-15.0131
-15.2576
-15.4987
-15.7361
-15.9696
-16.1989
-16.4237
-16.6437
-16.8586
-17.068
-17.2714
-17.4687
-17.6592
-17.8428
-18.0189
-18.1872
-18.3474
-18.4992
-18.6424
-18.7767
-18.902
-19.0183
8.35287
8.35091
8.31613
8.24505
8.14238
8.00993
7.84855
7.65969
7.44521
7.20705
6.9472
6.66771
6.37063
6.05799
5.73172
5.39368
5.04563
4.68918
4.32584
3.95697
3.58382
3.20748
2.82896
2.44911
2.0687
1.6884
1.30878
0.930336
0.553473
0.178547
-0.194151
-0.564382
-0.931951
-1.29671
-1.65853
-2.01732
-2.37303
-2.7256
-3.07502
-3.42128
-3.76438
-4.10434
-4.44119
-4.77496
-5.10568
-5.43341
-5.75819
-6.08007
-6.3991
-6.71533
-7.02883
-7.33964
-7.64782
-7.95341
-8.25647
-8.55705
-8.8552
-9.15094
-9.44434
-9.73541
-10.0242
-10.3107
-10.595
-10.877
-11.1569
-11.4345
-11.7099
-11.9831
-12.2541
-12.5227
-12.789
-13.053
-13.3145
-13.5735
-13.8299
-14.0836
-14.3344
-14.5822
-14.8269
-15.0683
-15.3062
-15.5403
-15.7705
-15.9965
-16.2179
-16.4346
-16.6462
-16.8523
-17.0527
-17.247
-17.4348
-17.6158
-17.7898
-17.9563
-18.1151
-18.266
-18.4086
-18.543
-18.669
-18.7864
7.97741
7.97559
7.9435
7.87793
7.78315
7.66075
7.51142
7.3364
7.13727
6.9157
6.67345
6.41228
6.13403
5.84046
5.53333
5.21431
4.88499
4.54687
4.20133
3.84965
3.49302
3.13249
2.769
2.40343
2.03653
1.66895
1.3013
0.934066
0.567703
0.202584
-0.160971
-0.52269
-0.882347
-1.23975
-1.59476
-1.94724
-2.29709
-2.64425
-2.98866
-3.33028
-3.66909
-4.00507
-4.33824
-4.66859
-4.99615
-5.32093
-5.64296
-5.96227
-6.27889
-6.59287
-6.90423
-7.21301
-7.51926
-7.823
-8.12428
-8.42312
-8.71957
-9.01364
-9.30538
-9.5948
-9.88193
-10.1668
-10.4494
-10.7297
-11.0078
-11.2836
-11.5571
-11.8283
-12.0972
-12.3638
-12.6279
-12.8896
-13.1488
-13.4053
-13.6591
-13.9102
-14.1583
-14.4033
-14.6451
-14.8835
-15.1184
-15.3494
-15.5765
-15.7993
-16.0176
-16.2311
-16.4397
-16.6428
-16.8404
-17.032
-17.2174
-17.3962
-17.5682
-17.7331
-17.8907
-18.0407
-18.183
-18.3175
-18.444
-18.5626
7.63178
7.63007
7.60034
7.5396
7.45174
7.33817
7.19945
7.03663
6.85108
6.64426
6.41768
6.17291
5.91154
5.63518
5.34537
5.04363
4.73141
4.41008
4.08093
3.74515
3.40385
3.05804
2.70864
2.35648
2.00231
1.64678
1.2905
0.933972
0.577663
0.221968
-0.132769
-0.48625
-0.83822
-1.18847
-1.5368
-1.88308
-2.22717
-2.56897
-2.90841
-3.2454
-3.57992
-3.91192
-4.24137
-4.56827
-4.89261
-5.21438
-5.53359
-5.85026
-6.16441
-6.47604
-6.78517
-7.09184
-7.39607
-7.69786
-7.99726
-8.29428
-8.58894
-8.88126
-9.17126
-9.45895
-9.74435
-10.0275
-10.3083
-10.5868
-10.863
-11.137
-11.4086
-11.6778
-11.9447
-12.2091
-12.4711
-12.7305
-12.9873
-13.2414
-13.4928
-13.7412
-13.9867
-14.229
-14.468
-14.7036
-14.9355
-15.1636
-15.3877
-15.6076
-15.823
-16.0336
-16.2393
-16.4398
-16.6347
-16.8239
-17.007
-17.1839
-17.3541
-17.5176
-17.6742
-17.8235
-17.9655
-18.1001
-18.2272
-18.3468
7.31376
7.31216
7.28451
7.228
7.14623
7.04045
6.91109
6.75906
6.58556
6.39185
6.17926
5.94916
5.70298
5.44212
5.16799
4.88196
4.58534
4.27939
3.9653
3.64419
3.3171
2.98498
2.64873
2.30914
1.96694
1.62279
1.27728
0.930928
0.584209
0.237533
-0.108735
-0.454279
-0.798821
-1.14212
-1.48397
-1.8242
-2.16264
-2.49918
-2.83371
-3.16614
-3.4964
-3.82442
-4.15017
-4.47361
-4.7947
-5.11344
-5.4298
-5.74379
-6.0554
-6.36463
-6.67149
-6.97598
-7.27812
-7.57791
-7.87536
-8.17049
-8.4633
-8.7538
-9.042
-9.3279
-9.6115
-9.89281
-10.1718
-10.4485
-10.7229
-10.9949
-11.2645
-11.5318
-11.7966
-12.0589
-12.3187
-12.5759
-12.8304
-13.0822
-13.3311
-13.577
-13.8199
-14.0596
-14.2959
-14.5288
-14.7579
-14.9833
-15.2046
-15.4217
-15.6343
-15.8423
-16.0454
-16.2433
-16.4359
-16.6229
-16.804
-16.979
-17.1477
-17.3099
-17.4655
-17.6142
-17.756
-17.8907
-18.0183
-18.1388
7.02143
7.01993
6.99411
6.94134
6.86494
6.76602
6.64495
6.50249
6.33969
6.15767
5.95757
5.74063
5.50809
5.26122
5.00128
4.72951
4.44711
4.15523
3.85497
3.54738
3.23343
2.91403
2.59002
2.26218
1.93122
1.59777
1.26242
0.925714
0.588108
0.250031
-0.0881397
-0.42607
-0.763464
-1.10006
-1.43563
-1.76998
-2.10293
-2.43433
-2.76406
-3.092
-3.41806
-3.74215
-4.06422
-4.38421
-4.70208
-5.01777
-5.33127
-5.64256
-5.95161
-6.25841
-6.56296
-6.86524
-7.16525
-7.46299
-7.75846
-8.05165
-8.34256
-8.6312
-8.91756
-9.20163
-9.4834
-9.76288
-10.04
-10.3149
-10.5873
-10.8574
-11.1251
-11.3904
-11.6531
-11.9134
-12.171
-12.426
-12.6782
-12.9276
-13.1742
-13.4177
-13.6581
-13.8952
-14.129
-14.3593
-14.5858
-14.8086
-15.0272
-15.2417
-15.4518
-15.6573
-15.8579
-16.0536
-16.2439
-16.4288
-16.6081
-16.7814
-16.9488
-17.1098
-17.2645
-17.4127
-17.5543
-17.6891
-17.8172
-17.9386
6.75309
6.75168
6.72747
6.678
6.60634
6.51351
6.39977
6.26582
6.11254
5.94094
5.75202
5.54687
5.3266
5.09235
4.84526
4.58644
4.31699
4.03797
3.75039
3.45524
3.15342
2.84579
2.53316
2.21627
1.89581
1.57241
1.24664
0.919024
0.590048
0.260137
-0.0703201
-0.400977
-0.731522
-1.06168
-1.3912
-1.71987
-2.0475
-2.37391
-2.69895
-3.02251
-3.34445
-3.66469
-3.98314
-4.29973
-4.61439
-4.92706
-5.23772
-5.5463
-5.85279
-6.15716
-6.45938
-6.75942
-7.05729
-7.35296
-7.64641
-7.93764
-8.22663
-8.51338
-8.79787
-9.08009
-9.36001
-9.63764
-9.91294
-10.1859
-10.4565
-10.7246
-10.9904
-11.2536
-11.5144
-11.7725
-12.028
-12.2808
-12.5308
-12.778
-13.0222
-13.2634
-13.5014
-13.7361
-13.9674
-14.1952
-14.4193
-14.6395
-14.8557
-15.0678
-15.2755
-15.4786
-15.677
-15.8704
-16.0588
-16.2418
-16.4193
-16.5912
-16.7572
-16.9173
-17.0712
-17.2189
-17.3602
-17.4952
-17.6238
-17.7459
6.50724
6.5059
6.48312
6.43657
6.36912
6.28167
6.17445
6.04805
5.90326
5.74095
5.56203
5.36746
5.15823
4.93537
4.69989
4.45282
4.19515
3.92787
3.65191
3.36818
3.07753
2.78079
2.4787
2.172
1.86133
1.54732
1.23053
0.911475
0.590641
0.268458
-0.0546809
-0.378418
-0.702431
-1.02643
-1.35015
-1.67336
-1.99585
-2.31743
-2.63795
-2.95724
-3.27518
-3.59165
-3.90655
-4.21979
-4.5313
-4.841
-5.14883
-5.45475
-5.75869
-6.06063
-6.36052
-6.65834
-6.95405
-7.24764
-7.53907
-7.82833
-8.11539
-8.40023
-8.68284