/*--------------------------------*- C++ -*----------------------------------*\
| =========                 |                                                 |
| \\      /  F ield         | OpenFOAM: The Open Source CFD Toolbox           |
|  \\    /   O peration     | Version:  2406                                  |
|   \\  /    A nd           | Website:  www.openfoam.com                      |
|    \\/     M anipulation  |                                                 |
\*---------------------------------------------------------------------------*/
FoamFile
{
    version     2.0;
    format      ascii;
    arch        "LSB;label=32;scalar=64";
    class       surfaceScalarField;
    location    "650";
    object      phi;
}
// * * * * * * * * * * * * * * * * * * * * * * * * * * * * * * * * * * * * * //

dimensions      [0 3 -1 0 0 0 0];

oriented        oriented;

internalField   nonuniform List<scalar> 
299000
(
0.0796643
0.0203357
0.0586791
0.0209852
0.0442545
0.0144245
0.0348017
0.00945285
0.0284996
0.00630205
0.0241892
0.00431038
0.0211374
0.00305181
0.0188878
0.00224963
0.0171637
0.00172408
0.0157974
0.00136633
0.0146844
0.00111298
0.0137574
0.000926983
0.0129714
0.000786042
0.0122951
0.000676321
0.0117061
0.000588943
0.0111881
0.000518024
0.0107286
0.000459537
0.0103179
0.000410641
0.00994863
0.000369284
0.00961469
0.000333944
0.00931121
0.000303475
0.00903422
0.000276995
0.0087804
0.000253817
0.008547
0.000233399
0.00833169
0.000215307
0.0081325
0.000199191
0.00794774
0.000184764
0.00777595
0.000171792
0.00761587
0.000160079
0.0074664
0.000149463
0.0073266
0.000139807
0.0071956
0.000130994
0.00707267
0.000122927
0.00695716
0.000115519
0.00684846
0.000108698
0.00674605
0.000102402
0.00664948
9.65761e-05
0.00655831
9.11718e-05
0.00647216
8.61476e-05
0.00639069
8.14668e-05
0.00631359
7.70968e-05
0.00624059
7.3009e-05
0.00617141
6.91777e-05
0.00610583
6.558e-05
0.00604363
6.21956e-05
0.00598463
5.90061e-05
0.00592863
5.59949e-05
0.00587548
5.31472e-05
0.00582503
5.04493e-05
0.00577714
4.78889e-05
0.00573169
4.54549e-05
0.00568855
4.31369e-05
0.00564763
4.09255e-05
0.00560882
3.88119e-05
0.00557203
3.67882e-05
0.00553718
3.48469e-05
0.0055042
3.2981e-05
0.00547301
3.11839e-05
0.00544357
2.94496e-05
0.00541579
2.77722e-05
0.00538965
2.61461e-05
0.00536508
2.45662e-05
0.00534205
2.30272e-05
0.00532053
2.15243e-05
0.00530048
2.00525e-05
0.00528187
1.8607e-05
0.00526469
1.71831e-05
0.00524891
1.57758e-05
0.00523453
1.43801e-05
0.00522154
1.2991e-05
0.00520994
1.1603e-05
0.00519972
1.02105e-05
0.00519092
8.8073e-06
0.00518353
7.38675e-06
0.00517759
5.94149e-06
0.00517313
4.4633e-06
0.00517018
2.94285e-06
0.00516881
1.36947e-06
0.00516908
-2.6926e-07
0.00517107
-1.988e-06
0.00517487
-3.80426e-06
0.00518061
-5.7392e-06
0.00518843
-7.81884e-06
0.00519851
-1.00758e-05
0.00521106
-1.25517e-05
0.00522636
-1.53014e-05
0.00524476
-1.83994e-05
0.00526671
-2.19518e-05
0.00529283
-2.6118e-05
0.00532398
-3.11522e-05
0.00536147
-3.74877e-05
0.00540738
-4.59066e-05
0.00546527
-5.78928e-05
0.00554165
-7.63795e-05
0.00564904
-0.000107397
0.00581269
-0.000163647
0.00608403
-0.000271338
0.00656943
-0.000485401
0.00753326
-0.000963834
-0.00228153
0.00981479
0.105208
0.0151279
0.100188
0.0260051
0.0901925
0.02442
0.0797499
0.0198955
0.0705673
0.0154846
0.0629853
0.0118923
0.0568426
0.0091945
0.051862
0.0072303
0.0477852
0.0058009
0.0444046
0.00474689
0.0415625
0.0039551
0.0391414
0.00334803
0.0370544
0.00287313
0.035236
0.00249464
0.0336371
0.0021879
0.0322195
0.00193557
0.0309538
0.00172527
0.0298165
0.00154797
0.0287888
0.00139694
0.0278556
0.00126713
0.0270045
0.00115464
0.026225
0.00105645
0.0255087
0.000970168
0.0248482
0.000893898
0.0242374
0.000826107
0.023671
0.000765551
0.0231445
0.000711206
0.0226541
0.000662228
0.0221963
0.000617913
0.0217681
0.000577668
0.0213669
0.000540996
0.0209904
0.000507471
0.0206366
0.000476733
0.0203036
0.000448469
0.0199899
0.000422411
0.019694
0.000398327
0.0194146
0.000376013
0.0191505
0.000355293
0.0189006
0.000336011
0.018664
0.000318029
0.0184399
0.000301227
0.0182274
0.000285497
0.0180258
0.000270742
0.0178345
0.000256877
0.0176529
0.000243825
0.0174804
0.000231518
0.0173165
0.000219892
0.0171608
0.000208892
0.0170127
0.000198466
0.0168721
0.000188568
0.0167384
0.000179155
0.0166113
0.000170188
0.0164906
0.000161632
0.016376
0.000153453
0.0162671
0.000145621
0.0161639
0.000138108
0.016066
0.000130887
0.0159732
0.000123933
0.0158854
0.000117224
0.0158025
0.000110737
0.0157242
0.00010445
0.0156504
9.83453e-05
0.015581
9.24019e-05
0.0155159
8.66014e-05
0.0154551
8.09254e-05
0.0153983
7.53558e-05
0.0153456
6.98745e-05
0.0152969
6.44632e-05
0.0152522
5.91034e-05
0.0152114
5.37757e-05
0.0151746
4.84603e-05
0.0151416
4.3136e-05
0.0151127
3.778e-05
0.0150877
3.23677e-05
0.0150668
2.68721e-05
0.01505
2.12629e-05
0.0150374
1.55059e-05
0.0150292
9.56193e-06
0.0150255
3.38557e-06
0.0150266
-3.07674e-06
0.0150327
-9.88898e-06
0.0150441
-1.71288e-05
0.0150612
-2.48917e-05
0.0150844
-3.32981e-05
0.0151144
-4.2502e-05
0.0151518
-5.27061e-05
0.0151975
-6.41859e-05
0.0152529
-7.73282e-05
0.0153195
-9.27002e-05
0.0153995
-0.000111171
0.0154962
-0.000134134
0.0156142
-0.000163918
0.0157608
-0.000204565
0.0159478
-0.000263289
0.0161936
-0.000353245
0.0165285
-0.000498518
0.0169996
-0.000742501
0.0176783
-0.00116409
0.018629
-0.0019145
-0.00321513
0.0195626
0.105142
0.00998559
0.10894
0.0222075
0.107707
0.0256528
0.103023
0.0245793
0.0967853
0.0217226
0.0902288
0.0184489
0.084003
0.0154203
0.07837
0.0128633
0.0733852
0.0107857
0.0690111
0.00912101
0.0651771
0.00778907
0.0618074
0.00671773
0.0588321
0.00584838
0.0561911
0.00513564
0.0538339
0.0045451
0.0517188
0.00405074
0.0498112
0.00363286
0.0480827
0.00327644
0.0465097
0.00296991
0.0450726
0.00270428
0.0437547
0.00247249
0.0425422
0.00226894
0.0414233
0.00208913
0.0403877
0.00192946
0.0394269
0.00178695
0.0385333
0.00165918
0.0377003
0.00154413
0.0369224
0.00144014
0.0361945
0.0013458
0.0355123
0.00125991
0.0348718
0.00118147
0.0342697
0.00110961
0.0337028
0.0010436
0.0331685
0.000982796
0.0326642
0.000926647
0.0321879
0.000874673
0.0317375
0.000826453
0.0313111
0.000781617
0.0309073
0.000739843
0.0305245
0.000700842
0.0301614
0.000664361
0.0298167
0.000630173
0.0294893
0.000598077
0.0291783
0.000567891
0.0288827
0.000539453
0.0286016
0.000512617
0.0283342
0.000487251
0.0280799
0.000463235
0.0278379
0.00044046
0.0276076
0.000418827
0.0273885
0.000398245
0.0271801
0.000378632
0.0269818
0.00035991
0.0267933
0.000342009
0.026614
0.000324864
0.0264437
0.000308415
0.026282
0.000292603
0.0261286
0.000277377
0.0259831
0.000262686
0.0258454
0.000248483
0.0257151
0.000234723
0.0255921
0.000221363
0.0254761
0.000208362
0.025367
0.000195679
0.0252647
0.000183275
0.0251689
0.000171111
0.0250796
0.000159149
0.0249968
0.000147349
0.0249202
0.000135673
0.0248499
0.000124079
0.0247858
0.000112526
0.024728
0.000100968
0.0246764
8.93584e-05
0.0246311
7.7645e-05
0.0245922
6.57713e-05
0.0245598
5.36743e-05
0.024534
4.1283e-05
0.0245151
2.85163e-05
0.0245032
1.52801e-05
0.0244986
1.46413e-06
0.0245018
-1.30633e-05
0.0245132
-2.84616e-05
0.0245332
-4.49268e-05
0.0245626
-6.27042e-05
0.0246022
-8.21078e-05
0.024653
-0.000103548
0.0247164
-0.000127575
0.0247941
-0.000154952
0.0248881
-0.000186767
0.0250016
-0.000224629
0.0251384
-0.000270998
0.0253043
-0.000329747
0.0255068
-0.000407121
0.0257569
-0.000513365
0.026069
-0.000665367
0.0264612
-0.000890661
0.0269513
-0.00123265
0.0275433
-0.00175607
0.0281742
-0.00254539
-0.00364911
0.0286081
0.103312
0.00667353
0.108501
0.0170184
0.111574
0.0225799
0.111771
0.0243818
0.109656
0.0238382
0.106064
0.0220413
0.10173
0.0197543
0.0971649
0.0174279
0.0926736
0.0152771
0.0884143
0.0133802
0.0844565
0.0117469
0.0808185
0.0103558
0.0774918
0.00917505
0.0744556
0.00817182
0.0716843
0.00731639
0.0691516
0.00658344
0.0668325
0.00595193
0.0647043
0.00540469
0.0627465
0.00492773
0.060941
0.00450972
0.0592721
0.0041414
0.0577258
0.00381523
0.0562899
0.003525
0.0549538
0.0032656
0.053708
0.00303276
0.0525442
0.00282295
0.0514552
0.00263318
0.0504344
0.00246094
0.0494761
0.00230409
0.0485752
0.00216083
0.047727
0.00202958
0.0469276
0.00190902
0.0461733
0.00179798
0.0454606
0.00169547
0.0447866
0.00160059
0.0441487
0.00151259
0.0435444
0.0014308
0.0429714
0.00135461
0.0424277
0.00128351
0.0419115
0.00121704
0.0414211
0.00115477
0.0409549
0.00109634
0.0405116
0.00104142
0.0400898
0.000989713
0.0396883
0.000940947
0.039306
0.000894884
0.038942
0.000851304
0.0385952
0.000810009
0.0382648
0.000770819
0.0379501
0.000733568
0.0376502
0.000698104
0.0373646
0.00066429
0.0370925
0.000631997
0.0368334
0.000601106
0.0365867
0.000571508
0.036352
0.000543102
0.0361289
0.000515791
0.0359167
0.000489486
0.0357153
0.000464103
0.0355243
0.000439563
0.0353432
0.000415789
0.0351718
0.00039271
0.0350099
0.000370254
0.0348573
0.000348356
0.0347136
0.000326947
0.0345787
0.000305963
0.0344526
0.00028534
0.0343349
0.000265011
0.0342256
0.000244912
0.0341248
0.000224973
0.0340322
0.000205125
0.0339478
0.000185293
0.0338718
0.000165399
0.0338041
0.000145357
0.0337448
0.000125075
0.033694
0.000104448
0.0336519
8.33612e-05
0.0336188
6.16827e-05
0.0335948
3.92601e-05
0.0335803
1.59151e-05
0.0335758
-8.56337e-06
0.0335818
-3.44302e-05
0.0335989
-6.19968e-05
0.0336278
-9.16508e-05
0.0336696
-0.000123884
0.0337254
-0.00015933
0.0337966
-0.00019883
0.0338852
-0.000243522
0.0339934
-0.000294985
0.0341243
-0.000355473
0.0342815
-0.000428274
0.0344701
-0.000518286
0.0346959
-0.000632909
0.0349659
-0.000783379
0.0352871
-0.000986626
0.0356639
-0.00126746
0.0360914
-0.00166011
0.0365418
-0.00220645
0.0369399
-0.00294349
-0.00386082
0.0371516
0.102077
0.00459608
0.106348
0.0127483
0.110418
0.0185094
0.113046
0.0217543
0.113911
0.0229726
0.113195
0.0227572
0.111291
0.0216587
0.10861
0.0201085
0.105492
0.0183955
0.102181
0.0166914
0.09884
0.0150874
0.0955718
0.0136241
0.0924343
0.0123125
0.0894578
0.0111483
0.0866545
0.0101197
0.0840259
0.00921205
0.0815671
0.00841079
0.0792696
0.00770211
0.0771237
0.00707368
0.0751187
0.0065147
0.0732442
0.00601587
0.0714902
0.00556922
0.0698473
0.00516793
0.0683067
0.00480619
0.0668604
0.00447905
0.0655011
0.00418228
0.064222
0.00391225
0.0630171
0.00366583
0.0618809
0.00344035
0.0608082
0.00323347
0.0597946
0.0030432
0.0588359
0.00286777
0.0579282
0.00270565
0.0570682
0.00255551
0.0562526
0.00241616
0.0554786
0.00228658
0.0547436
0.00216584
0.0540451
0.00205313
0.0533808
0.00194772
0.0527489
0.00184897
0.0521474
0.00175631
0.0515745
0.00166921
0.0510287
0.00158721
0.0505085
0.0015099
0.0500126
0.00143688
0.0495397
0.00136783
0.0490885
0.00130242
0.0486582
0.00124037
0.0482476
0.00118142
0.0478558
0.00112533
0.047482
0.0010719
0.0471254
0.0010209
0.0467852
0.000972166
0.0464608
0.000925516
0.0461516
0.000880794
0.0458568
0.000837849
0.0455761
0.000796543
0.0453088
0.000756745
0.0450546
0.000718331
0.0448129
0.000681185
0.0445835
0.000645194
0.044366
0.000610253
0.04416
0.000576259
0.0439652
0.000543113
0.0437815
0.000510716
0.0436084
0.000478974
0.043446
0.00044779
0.0432939
0.000417071
0.0431521
0.000386718
0.0430205
0.000356633
0.0428989
0.000326714
0.0427873
0.000296852
0.0426858
0.000266933
0.0425943
0.000236836
0.042513
0.000206425
0.0424419
0.000175554
0.0423812
0.000144057
0.0423311
0.000111748
0.0422919
7.8412e-05
0.0422641
4.37989e-05
0.0422479
7.61469e-06
0.0422439
-3.04928e-05
0.0422529
-7.09511e-05
0.0422755
-0.000114287
0.0423128
-0.00016116
0.0423659
-0.000212411
0.0424362
-0.00026913
0.0425254
-0.000332762
0.0426357
-0.000405253
0.0427695
-0.000489277
0.0429298
-0.000588568
0.0431199
-0.000708403
0.0433433
-0.000856278
0.0436027
-0.00104279
0.0438987
-0.00128262
0.0442265
-0.00159524
0.0445706
-0.00200424
0.0448973
-0.00253314
0.0451475
-0.00319368
-0.00396056
0.0452472
0.101292
0.00330391
0.104405
0.00963565
0.108104
0.0148103
0.111405
0.0184535
0.113751
0.0206262
0.114945
0.0215633
0.115039
0.0215645
0.11422
0.020928
0.112712
0.0199037
0.110726
0.0186774
0.108437
0.0173764
0.105979
0.0160818
0.10345
0.0148414
0.100918
0.0136803
0.0984285
0.0126092
0.0960108
0.0116297
0.0936827
0.0107389
0.091454
0.0099309
0.0893288
0.00919889
0.0873078
0.0085357
0.0853893
0.00793437
0.0835701
0.00738842
0.0818461
0.00689192
0.0802127
0.00643954
0.0786653
0.00602651
0.0771989
0.00564864
0.075809
0.00530219
0.0744909
0.00498387
0.0732405
0.00469079
0.0720535
0.00442039
0.0709263
0.00417042
0.0698552
0.00393887
0.0688369
0.00372398
0.0678682
0.00352419
0.0669463
0.00333809
0.0660684
0.00316445
0.0652321
0.00300216
0.064435
0.00285023
0.0636749
0.00270777
0.0629499
0.00257398
0.0622581
0.00244815
0.0615977
0.00232962
0.0609671
0.0022178
0.0603648
0.00211218
0.0597894
0.00201225
0.0592397
0.00191759
0.0587143
0.00182779
0.0582122
0.00174249
0.0577323
0.00166134
0.0572736
0.00158404
0.0568351
0.0015103
0.0564162
0.00143986
0.0560159
0.00137247
0.0556335
0.00130791
0.0552683
0.00124597
0.0549197
0.00118644
0.0545871
0.00112916
0.0542699
0.00107393
0.0539677
0.00102059
0.0536799
0.000968997
0.0534061
0.000918992
0.0531459
0.000870435
0.052899
0.000823188
0.0526649
0.000777117
0.0524436
0.000732092
0.0522346
0.000687984
0.0520377
0.000644666
0.0518527
0.00060201
0.0516796
0.000559886
0.051518
0.000518163
0.0513681
0.000476703
0.0512295
0.000435363
0.0511025
0.000393992
0.0509869
0.000352429
0.0508828
0.000310497
0.0507904
0.000268004
0.0507097
0.000224734
0.050641
0.000180446
0.0505845
0.000134863
0.0505407
8.76681e-05
0.0505098
3.84866e-05
0.0504924
-1.31237e-05
0.0504892
-6.76945e-05
0.0505008
-0.000125873
0.0505281
-0.00018846
0.0505721
-0.000256456
0.0506341
-0.000331136
0.0507155
-0.000414143
0.0508179
-0.000507627
0.050943
-0.000614436
0.0510928
-0.000738376
0.051269
-0.000884563
0.0514726
-0.00105985
0.0517031
-0.00127329
0.0519569
-0.00153646
0.052225
-0.00186331
0.0524893
-0.00226861
0.0527201
-0.00276393
0.0528758
-0.00334931
-0.00399984
0.052915
0.100819
0.0024854
0.103016
0.00743862
0.105987
0.0118388
0.109099
0.0153414
0.111865
0.0178597
0.113984
0.0194449
0.115324
0.0202238
0.115891
0.020362
0.115766
0.0200287
0.115069
0.0193734
0.113929
0.0185168
0.112461
0.0175499
0.110764
0.016538
0.108919
0.0155253
0.106989
0.0145401
0.105019
0.0135995
0.103045
0.0127128
0.101092
0.0118838
0.0991775
0.0111132
0.0973138
0.0103994
0.0955086
0.0097396
0.0937666
0.00913043
0.0920903
0.0085682
0.0904807
0.00804921
0.0889373
0.00756985
0.0874592
0.00712672
0.0860448
0.00671665
0.0846919
0.00633673
0.0833984
0.00598427
0.082162
0.00565684
0.0809802
0.00535225
0.0798505
0.00506849
0.0787707
0.00480377
0.0777385
0.00455646
0.0767515
0.00432508
0.0758076
0.0041083
0.0749049
0.00390492
0.0740412
0.00371386
0.0732149
0.00353412
0.0724241
0.00336481
0.0716671
0.00320511
0.0709424
0.00305428
0.0702486
0.00291165
0.0695842
0.0027766
0.0689478
0.00264857
0.0683384
0.00252704
0.0677547
0.00241152
0.0671956
0.0023016
0.06666
0.00219685
0.0661472
0.00209692
0.065656
0.00200146
0.0651857
0.00191014
0.0647355
0.00182267
0.0643046
0.00173878
0.0638924
0.0016582
0.0634982
0.00158069
0.0631213
0.00150602
0.0627612
0.00143399
0.0624175
0.00136437
0.0620895
0.00129699
0.0617768
0.00123164
0.0614791
0.00116816
0.0611959
0.00110638
0.0609269
0.00104612
0.0606718
0.000987215
0.0604303
0.000929514
0.0602021
0.000872852
0.059987
0.000817069
0.0597849
0.000762003
0.0595956
0.000707488
0.0594189
0.000653353
0.0592549
0.00059942
0.0591034
0.0005455
0.0589644
0.000491394
0.058838
0.000436885
0.0587243
0.000381735
0.0586233
0.000325683
0.0585353
0.000268435
0.0584605
0.000209659
0.0583992
0.000148975
0.0583518
8.59401e-05
0.0583186
2.00353e-05
0.0583003
-4.93553e-05
0.0582974
-0.000122972
0.0583106
-0.000201717
0.0583409
-0.000286696
0.058389
-0.000379288
0.0584561
-0.000481225
0.0585432
-0.000594704
0.0586513
-0.000722532
0.0587812
-0.000868307
0.0589333
-0.00103663
0.0591068
-0.00123334
0.0592991
-0.00146563
0.0595047
-0.00174204
0.0597132
-0.00207187
0.0599082
-0.00246359
0.0600661
-0.00292177
0.0601586
-0.0034418
-0.00400326
0.060162
0.100541
0.00194458
0.102093
0.00588658
0.104369
0.00956222
0.106997
0.0127137
0.109631
0.0152264
0.111998
0.0170776
0.113919
0.0183024
0.115305
0.0189761
0.116139
0.019195
0.116454
0.0190588
0.116311
0.0186599
0.115783
0.0180773
0.114946
0.0173753
0.113868
0.0166035
0.112609
0.0157989
0.11122
0.014988
0.109744
0.0141894
0.108212
0.0134151
0.106653
0.0126729
0.105085
0.0119671
0.103525
0.0112996
0.101984
0.010671
0.100472
0.0100807
0.0989939
0.00952724
0.0975547
0.00900899
0.0961574
0.008524
0.0948039
0.00807021
0.093495
0.00764558
0.0922312
0.00724808
0.0910123
0.00687579
0.0898376
0.00652687
0.0887065
0.0061996
0.087618
0.00589236
0.0865707
0.00560367
0.0855637
0.00533214
0.0845955
0.00507651
0.0836648
0.00483558
0.0827704
0.00460829
0.0819109
0.00439363
0.081085
0.00419068
0.0802915
0.00399861
0.0795291
0.00381663
0.0787968
0.00364404
0.0780932
0.00348015
0.0774174
0.00332438
0.0767683
0.00317615
0.0761449
0.00303495
0.0755462
0.00290028
0.0749713
0.0027717
0.0744194
0.0026488
0.0738897
0.00253119
0.0733814
0.00241849
0.0728936
0.00231038
0.0724259
0.00220654
0.0719774
0.00210667
0.0715476
0.00201048
0.0711359
0.00191772
0.0707418
0.00182812
0.0703647
0.00174146
0.0700042
0.0016575
0.0696598
0.00157603
0.0693311
0.00149683
0.0690178
0.00141969
0.0687195
0.00134443
0.0684359
0.00127084
0.0681666
0.00119874
0.0679115
0.00112793
0.0676704
0.00105822
0.067443
0.000989417
0.0672291
0.000921325
0.0670288
0.000853741
0.0668417
0.000786452
0.066668
0.000719236
0.0665075
0.000651857
0.0663603
0.000584061
0.0662265
0.00051557
0.0661061
0.00044608
0.0659993
0.000375254
0.0659062
0.00030271
0.0658272
0.000228016
0.0657625
0.000150675
0.0657124
7.01089e-05
0.0656774
-1.4358e-05
0.065658
-0.000103528
0.0656546
-0.000198361
0.0656679
-0.000300013
0.0656985
-0.000409891
0.065747
-0.00052972
0.0658139
-0.000661618
0.0658996
-0.000808199
0.066004
-0.000972677
0.0661263
-0.00115897
0.0662647
-0.00137179
0.0664157
-0.00161655
0.0665728
-0.00189922
0.0667266
-0.00222557
0.0668629
-0.00259998
0.0669643
-0.00302316
0.0670117
-0.00348921
-0.00398237
0.0669909
0.100374
0.00157026
0.101489
0.00477175
0.103211
0.00784083
0.105327
0.0105972
0.107614
0.0129396
0.109868
0.0148238
0.111925
0.016245
0.113672
0.017229
0.115044
0.0178226
0.116019
0.018084
0.116605
0.0180742
0.116831
0.0178516
0.116737
0.0174688
0.11637
0.0169707
0.115775
0.016394
0.114994
0.0157683
0.114068
0.0151162
0.113028
0.0144548
0.111904
0.0137967
0.11072
0.013151
0.109496
0.0125238
0.108248
0.0119192
0.106989
0.0113396
0.10573
0.0107865
0.104478
0.0102602
0.103242
0.00976056
0.102025
0.00928706
0.100832
0.00883883
0.099665
0.00841482
0.0985269
0.00801391
0.0974189
0.00763488
0.0963419
0.00727653
0.0952966
0.00693766
0.0942832
0.0066171
0.0933016
0.00631373
0.0923516
0.00602648
0.0914329
0.00575431
0.0905449
0.00549628
0.0896871
0.00525146
0.0888588
0.00501902
0.0880592
0.00479815
0.0872877
0.00458811
0.0865436
0.0043882
0.085826
0.00419776
0.0851341
0.00401619
0.0844674
0.00384291
0.0838249
0.0036774
0.0832061
0.00351915
0.0826101
0.00336769
0.0820363
0.00322259
0.081484
0.00308344
0.0809527
0.00294985
0.0804416
0.00282145
0.0799503
0.0026979
0.079478
0.00257888
0.0790244
0.00246408
0.0785889
0.00235321
0.0781711
0.00224599
0.0777704
0.00214215
0.0773865
0.00204144
0.0770189
0.00194361
0.0766673
0.00184842
0.0763313
0.00175565
0.0760107
0.00166507
0.0757051
0.00157645
0.0754142
0.00148959
0.0751379
0.00140425
0.0748759
0.00132023
0.074628
0.0012373
0.0743941
0.00115523
0.074174
0.0010738
0.0739677
0.000992766
0.0737751
0.000911869
0.0735961
0.000830844
0.0734308
0.000749403
0.0732791
0.000667237
0.0731412
0.000584006
0.0730171
0.000499334
0.072907
0.000412803
0.0728111
0.00032394
0.0727295
0.00023221
0.0726627
0.000136997
0.0726107
3.7587e-05
0.072574
-6.6851e-05
0.072553
-0.000177295
0.0725479
-0.000294901
0.072559
-0.000421044
0.0725866
-0.000557364
0.0726308
-0.000705816
0.0726914
-0.000868729
0.0727676
-0.00104885
0.072858
-0.00124939
0.0729601
-0.00147396
0.0730701
-0.00172649
0.0731817
-0.0020109
0.0732867
-0.00233053
0.0733739
-0.00268717
0.0734304
-0.00307963
0.0734432
-0.00350208
-0.00394258
0.0734034
0.10027
0.00130004
0.10109
0.00395172
0.102397
0.00653364
0.104073
0.00892182
0.105976
0.0110365
0.107966
0.0128334
0.109918
0.0142939
0.111726
0.0154205
0.113316
0.0162322
0.114641
0.0167592
0.115678
0.0170379
0.116422
0.0171068
0.116887
0.0170039
0.117093
0.0167645
0.117067
0.0164201
0.116838
0.0159975
0.116435
0.0155195
0.115885
0.0150044
0.115215
0.0144671
0.114447
0.0139191
0.113601
0.0133695
0.112696
0.0128248
0.111745
0.0122902
0.110762
0.0117692
0.109758
0.0112643
0.108742
0.0107771
0.10772
0.0103085
0.1067
0.00985897
0.105686
0.00942864
0.104683
0.0090173
0.103693
0.00862454
0.10272
0.00824982
0.101765
0.0078925
0.10083
0.00755188
0.0999168
0.00722724
0.0990254
0.00691781
0.0981569
0.00662286
0.0973115
0.00634163
0.0964896
0.00607341
0.0956911
0.00581749
0.0949161
0.00557319
0.0941643
0.00533987
0.0934356
0.00511691
0.0927297
0.00490371
0.0920461
0.00469971
0.0913847
0.00450439
0.0907448
0.00431723
0.0901262
0.00413775
0.0895284
0.00396551
0.088951
0.00380006
0.0883934
0.00364099
0.0878553
0.00348793
0.0873363
0.0033405
0.0868358
0.00319834
0.0863536
0.00306113
0.0858891
0.00292855
0.0854421
0.00280028
0.085012
0.00267603
0.0845986
0.00255553
0.0842016
0.0024385
0.0838205
0.00232468
0.0834551
0.00221381
0.0831051
0.00210564
0.0827703
0.00199992
0.0824503
0.00189642
0.082145
0.0017949
0.0818541
0.00169511
0.0815775
0.00159682
0.081315
0.00149978
0.0810665
0.00140375
0.0808319
0.00130846
0.080611
0.00121366
0.0804038
0.00111906
0.0802102
0.00102437
0.0800304
0.000929284
0.0798641
0.000833455
0.0797116
0.00073652
0.0795729
0.000638076
0.079448
0.000537677
0.0793371
0.000434825
0.0792404
0.00032896
0.0791579
0.000219448
0.07909
0.000105562
0.0790366
-1.35303e-05
0.0789981
-0.000138792
0.0789746
-0.000271339
0.078966
-0.000412467
0.0789723
-0.000563681
0.0789932
-0.000726724
0.0790281
-0.000903601
0.0790758
-0.00109658
0.0791346
-0.00130819
0.0792018
-0.00154111
0.0792733
-0.00179806
0.0793439
-0.00208148
0.0794065
-0.00239306
0.0794523
-0.00273306
0.0794722
-0.00309945
0.0794571
-0.00348698
-0.0038866
0.0794011
0.100202
0.00109775
0.100821
0.00333288
0.101827
0.0055281
0.103151
0.00759738
0.104707
0.00948036
0.106401
0.0111391
0.108143
0.0125526
0.109849
0.0137141
0.111453
0.0146286
0.112902
0.0153103
0.11416
0.0157792
0.115208
0.0160587
0.116038
0.0161743
0.116652
0.0161511
0.117058
0.0160131
0.117273
0.0157825
0.117314
0.0154788
0.117199
0.0151192
0.116948
0.0147183
0.116579
0.0142882
0.116109
0.013839
0.115556
0.0133788
0.114932
0.0129141
0.114251
0.0124501
0.113524
0.0119908
0.112762
0.0115391
0.111973
0.0110974
0.111165
0.0106673
0.110344
0.0102499
0.109515
0.00984607
0.108683
0.0094561
0.107853
0.00908022
0.107027
0.00871842
0.106208
0.00837053
0.105399
0.00803631
0.104602
0.00771539
0.103817
0.00740738
0.103047
0.00711183
0.102292
0.00682826
0.101553
0.00655621
0.100831
0.00629516
0.100127
0.00604463
0.0994395
0.00580413
0.09877
0.00557318
0.0981184
0.00535131
0.0974848
0.00513807
0.096869
0.00493301
0.096271
0.00473571
0.0956908
0.00454575
0.0951281
0.00436275
0.0945828
0.00418631
0.0940546
0.00401608
0.0935434
0.00385169
0.0930489
0.00369281
0.092571
0.00353912
0.0921092
0.00339029
0.0916635
0.00324602
0.0912335
0.00310601
0.090819
0.00296999
0.0904199
0.00283767
0.0900358
0.00270879
0.0896665
0.00258307
0.0893119
0.00246026
0.0889717
0.0023401
0.0886458
0.00222234
0.088334
0.00210672
0.0880361
0.00199299
0.087752
0.0018809
0.0874816
0.00177018
0.0872248
0.00166057
0.0869815
0.0015518
0.0867515
0.00144359
0.086535
0.00133563
0.0863317
0.00122762
0.0861418
0.00111922
0.0859651
0.00101008
0.0858019
0.000899805
0.085652
0.000787984
0.0855155
0.000674152
0.0853925
0.000557799
0.0852831
0.000438357
0.0851874
0.000315189
0.0851054
0.000187577
0.0850371
5.47092e-05
0.0849827
-8.43342e-05
0.0849419
-0.0002306
0.0849147
-0.000385274
0.0849007
-0.0005497
0.0848994
-0.000725388
0.0849098
-0.000914011
0.0849306
-0.00111739
0.0849599
-0.00133745
0.0849949
-0.00157613
0.085032
-0.00183519
0.0850666
-0.00211604
0.0850928
-0.0024193
0.0851042
-0.00274439
0.0850937
-0.003089
0.0850553
-0.00344858
-0.0038162
0.0849849
0.100156
0.000941585
0.100635
0.00285416
0.101421
0.0047416
0.102476
0.00654293
0.103743
0.00821277
0.105162
0.00972028
0.106669
0.0110461
0.108202
0.0121807
0.109708
0.013123
0.11114
0.0138787
0.112461
0.0144581
0.113644
0.0148749
0.114673
0.0151452
0.115539
0.0152859
0.116238
0.0153141
0.116774
0.0152465
0.117154
0.0150987
0.117388
0.0148851
0.117488
0.0146184
0.117466
0.01431
0.117336
0.0139695
0.117109
0.0136055
0.116798
0.0132249
0.116414
0.0128336
0.115969
0.0124365
0.11547
0.0120374
0.114928
0.0116397
0.11435
0.0112457
0.113742
0.0108575
0.113112
0.0104767
0.112463
0.0101044
0.111802
0.00974142
0.111132
0.00938838
0.110457
0.00904564
0.10978
0.00871344
0.109103
0.00839184
0.10843
0.00808082
0.107761
0.00778027
0.1071
0.00749001
0.106446
0.00720981
0.105802
0.0069394
0.105168
0.00667848
0.104545
0.00642674
0.103935
0.00618384
0.103337
0.00594945
0.102751
0.00572322
0.10218
0.00550481
0.101621
0.00529387
0.101077
0.00509006
0.100547
0.00489305
0.100031
0.00470251
0.0995287
0.00451811
0.0990408
0.00433955
0.0985671
0.0041665
0.0981076
0.00399867
0.0976621
0.00383576
0.0972306
0.00367748
0.0968131
0.00352356
0.0964094
0.00337372
0.0960194
0.00322768
0.095643
0.00308518
0.0952801
0.00294595
0.0949306
0.00280974
0.0945944
0.00267628
0.0942714
0.00254532
0.0939615
0.0024166
0.0936647
0.00228986
0.0933807
0.00216484
0.0931096
0.00204126
0.0928514
0.00191886
0.0926058
0.00179734
0.092373
0.00167642
0.0921528
0.00155579
0.0919453
0.00143512
0.0917505
0.00131408
0.0915683
0.00119228
0.0913987
0.00106935
0.0912419
0.000944842
0.0910977
0.000818302
0.0909663
0.000689216
0.0908476
0.000557022
0.0907417
0.000421095
0.0906486
0.000280743
0.0905681
0.000135195
0.0905001
-1.64097e-05
0.0904446
-0.000175027
0.090401
-0.000341719
0.090369
-0.000517656
0.0903477
-0.000704111
0.0903361
-0.00090245
0.0903328
-0.0011141
0.0903359
-0.00134047
0.0903427
-0.00158291
0.09035
-0.00184251
0.0903539
-0.00211993
0.0903497
-0.00241514
0.0903324
-0.00272714
0.0902971
-0.00305361
0.0902392
-0.00339071
-0.00373303
0.090156
0.100124
0.000817899
0.100503
0.00247533
0.101129
0.00411543
0.101978
0.0056938
0.103015
0.00717601
0.104198
0.00853734
0.105483
0.00976106
0.106826
0.0108376
0.108185
0.0117635
0.109524
0.0125401
0.110809
0.0131727
0.112015
0.0136691
0.113121
0.0140392
0.114113
0.014294
0.114982
0.0144453
0.115723
0.0145051
0.116337
0.0144852
0.116825
0.0143966
0.117194
0.0142499
0.117449
0.0140546
0.117599
0.0138195
0.117652
0.0135523
0.117617
0.0132597
0.117503
0.0129476
0.117319
0.0126211
0.117072
0.0122845
0.11677
0.0119416
0.11642
0.0115952
0.11603
0.0112481
0.115604
0.0109023
0.115149
0.0105594
0.114669
0.010221
0.11417
0.00988796
0.113654
0.00956125
0.113126
0.00924149
0.112589
0.00892914
0.112045
0.00862456
0.111497
0.00832794
0.110948
0.0080394
0.110399
0.00775899
0.109852
0.00748667
0.109308
0.00722235
0.108769
0.00696592
0.108235
0.0067172
0.107709
0.00647601
0.10719
0.00624214
0.106679
0.00601536
0.106178
0.00579544
0.105686
0.00558212
0.105203
0.00537515
0.104732
0.00517428
0.104271
0.00497923
0.10382
0.00478976
0.103381
0.00460559
0.102953
0.00442647
0.102537
0.00425214
0.102132
0.00408234
0.101739
0.00391681
0.101357
0.0037553
0.100988
0.00359755
0.100629
0.00344332
0.100283
0.00329235
0.0999484
0.00314439
0.0996254
0.00299918
0.0993143
0.00285649
0.0990148
0.00271604
0.0987271
0.00257758
0.0984511
0.00244086
0.0981868
0.00230559
0.0979341
0.0021715
0.0976932
0.0020383
0.0974639
0.00190571
0.0972463
0.0017734
0.0970404
0.00164105
0.0968461
0.00150831
0.0966636
0.00137481
0.0964928
0.00124016
0.0963337
0.00110393
0.0961863
0.000965666
0.0960507
0.00082486
0.0959267
0.000680969
0.0958144
0.000533396
0.0957137
0.000381485
0.0956244
0.000224519
0.0955462
6.17123e-05
0.095479
-0.000107794
0.0954222
-0.000284929
0.0953753
-0.00047069
0.0953373
-0.000666132
0.0953072
-0.00087234
0.0952835
-0.0010904
0.0952643
-0.00132133
0.0952474
-0.001566
0.0952299
-0.00182501
0.0952085
-0.00209855
0.0951796
-0.00238621
0.0951392
-0.00268678
0.0950837
-0.0029981
0.0950099
-0.00331691
-0.00363897
0.0949159
0.1001
0.000717824
0.100406
0.00216947
0.100913
0.00360825
0.101606
0.00500096
0.102461
0.00632108
0.10345
0.00754871
0.104541
0.00866972
0.105703
0.00967527
0.106906
0.0105611
0.108119
0.0113269
0.109317
0.0119748
0.110476
0.0125094
0.111579
0.012937
0.112608
0.0132647
0.113553
0.0135006
0.114405
0.0136531
0.115159
0.0137307
0.115814
0.0137418
0.116369
0.0136946
0.116827
0.0135967
0.117191
0.0134555
0.117466
0.0132774
0.117657
0.0130686
0.11777
0.0128344
0.117812
0.0125798
0.117787
0.0123089
0.117703
0.0120255
0.117566
0.0117328
0.11738
0.0114336
0.117152
0.0111304
0.116887
0.0108251
0.116588
0.0105195
0.116261
0.010215
0.11591
0.00991278
0.115537
0.00961388
0.115147
0.00931906
0.114743
0.00902897
0.114327
0.00874409
0.113901
0.00846481
0.113469
0.00819142
0.113031
0.0079241
0.112591
0.00766299
0.112149
0.00740814
0.111706
0.00715957
0.111265
0.00691724
0.110826
0.00668109
0.11039
0.00645101
0.109959
0.00622689
0.109532
0.00600857
0.109112
0.0057959
0.108697
0.0055887
0.10829
0.00538679
0.107889
0.00518997
0.107497
0.00499804
0.107113
0.00481079
0.106737
0.00462801
0.10637
0.00444948
0.106012
0.00427498
0.105663
0.00410429
0.105323
0.00393718
0.104993
0.00377343
0.104672
0.0036128
0.104362
0.00345507
0.104061
0.00329999
0.10377
0.00314732
0.103489
0.00299683
0.103219
0.00284826
0.102958
0.00270135
0.102708
0.00255585
0.102468
0.00241148
0.102238
0.00226795
0.102019
0.00212498
0.10181
0.00198225
0.101612
0.00183945
0.101424
0.00169623
0.101246
0.00155222
0.101079
0.00140704
0.100923
0.00126028
0.100777
0.00111148
0.100642
0.000960173
0.100517
0.000805833
0.100403
0.0006479
0.100298
0.000485766
0.100204
0.000318775
0.10012
0.000146222
0.100044
-3.26485e-05
0.0999781
-0.000218635
0.09992
-0.000412573
0.0998692
-0.000615316
0.0998245