/*--------------------------------*- C++ -*----------------------------------*\
| =========                 |                                                 |
| \\      /  F ield         | OpenFOAM: The Open Source CFD Toolbox           |
|  \\    /   O peration     | Version:  2406                                  |
|   \\  /    A nd           | Website:  www.openfoam.com                      |
|    \\/     M anipulation  |                                                 |
\*---------------------------------------------------------------------------*/
FoamFile
{
    version     2.0;
    format      ascii;
    arch        "LSB;label=32;scalar=64";
    class       volVectorField;
    location    "650";
    object      U;
}
// * * * * * * * * * * * * * * * * * * * * * * * * * * * * * * * * * * * * * //

dimensions      [0 1 -1 0 0 0 0];

internalField   nonuniform List<vector> 
150000
(
(7.94097 0.953545 0)
(6.6975 1.02916 0)
(5.1775 0.578431 0)
(3.90218 0.294373 0)
(3.11147 0.166103 0)
(2.6034 0.0998788 0)
(2.24732 0.0624363 0)
(1.9882 0.0414186 0)
(1.79342 0.0293172 0)
(1.64153 0.0219121 0)
(1.51929 0.0170961 0)
(1.41845 0.0137945 0)
(1.33361 0.011423 0)
(1.26107 0.00965029 0)
(1.19823 0.00828139 0)
(1.14321 0.00719656 0)
(1.09458 0.00631871 0)
(1.05126 0.00559615 0)
(1.01242 0.00499291 0)
(0.977386 0.0044832 0)
(0.945618 0.00404805 0)
(0.91668 0.00367317 0)
(0.89021 0.00334762 0)
(0.865909 0.00306288 0)
(0.843524 0.00281223 0)
(0.822843 0.00259029 0)
(0.803682 0.00239273 0)
(0.785887 0.002216 0)
(0.769321 0.0020572 0)
(0.753868 0.00191392 0)
(0.739426 0.00178413 0)
(0.725905 0.00166616 0)
(0.713226 0.00155855 0)
(0.701319 0.00146009 0)
(0.690121 0.00136974 0)
(0.679578 0.00128659 0)
(0.66964 0.00120988 0)
(0.660262 0.00113891 0)
(0.651405 0.0010731 0)
(0.643032 0.00101194 0)
(0.635111 0.000954978 0)
(0.627612 0.000901801 0)
(0.620509 0.000852059 0)
(0.613776 0.000805436 0)
(0.607393 0.000761649 0)
(0.601337 0.000720446 0)
(0.595591 0.0006816 0)
(0.590138 0.000644906 0)
(0.584961 0.000610179 0)
(0.580048 0.00057725 0)
(0.575384 0.000545967 0)
(0.570957 0.000516189 0)
(0.566756 0.000487789 0)
(0.562771 0.000460648 0)
(0.558994 0.000434657 0)
(0.555414 0.000409715 0)
(0.552024 0.000385726 0)
(0.548817 0.000362603 0)
(0.545787 0.000340261 0)
(0.542927 0.000318622 0)
(0.540233 0.000297609 0)
(0.537698 0.00027715 0)
(0.535319 0.000257174 0)
(0.533093 0.000237613 0)
(0.531015 0.000218398 0)
(0.529082 0.000199463 0)
(0.527293 0.000180738 0)
(0.525646 0.000162155 0)
(0.524138 0.000143642 0)
(0.52277 0.000125124 0)
(0.52154 0.000106523 0)
(0.520449 8.77542e-05 0)
(0.519498 6.87266e-05 0)
(0.518688 4.93399e-05 0)
(0.518021 2.94828e-05 0)
(0.517499 9.02991e-06 0)
(0.517128 -1.21611e-05 0)
(0.516911 -3.42542e-05 0)
(0.516854 -5.74403e-05 0)
(0.516965 -8.19456e-05 0)
(0.517252 -0.000108039 0)
(0.517726 -0.000136044 0)
(0.5184 -0.000166352 0)
(0.519291 -0.00019945 0)
(0.520416 -0.000235949 0)
(0.521801 -0.000276645 0)
(0.523477 -0.000322619 0)
(0.525482 -0.000375439 0)
(0.527868 -0.000437595 0)
(0.530707 -0.000513441 0)
(0.5341 -0.00061133 0)
(0.538208 -0.000748415 0)
(0.543291 -0.000961548 0)
(0.549815 -0.00133393 0)
(0.55865 -0.00206418 0)
(0.571437 -0.00362348 0)
(0.591368 -0.00708669 0)
(0.626213 -0.0156987 0)
(0.697923 -0.0460811 0)
(0.810213 -0.170331 0)
(10.2186 1.88712 0)
(10.3826 2.72494 0)
(9.62168 2.24108 0)
(8.49557 1.62034 0)
(7.47671 1.14057 0)
(6.64217 0.80803 0)
(5.96302 0.586487 0)
(5.41222 0.439637 0)
(4.96415 0.340503 0)
(4.5953 0.271601 0)
(4.28723 0.222139 0)
(4.02636 0.185496 0)
(3.80268 0.157565 0)
(3.60873 0.135736 0)
(3.43887 0.118308 0)
(3.28884 0.104138 0)
(3.15529 0.0924365 0)
(3.03564 0.0826448 0)
(2.92779 0.074356 0)
(2.83008 0.0672686 0)
(2.74114 0.0611545 0)
(2.65983 0.0558381 0)
(2.58523 0.0511825 0)
(2.51655 0.0470795 0)
(2.45312 0.0434424 0)
(2.39438 0.0402014 0)
(2.33985 0.0372992 0)
(2.28909 0.0346887 0)
(2.24176 0.0323311 0)
(2.19752 0.0301936 0)
(2.15611 0.0282488 0)
(2.11728 0.0264734 0)
(2.08081 0.0248477 0)
(2.04652 0.0233547 0)
(2.01422 0.0219798 0)
(1.98377 0.0207104 0)
(1.95504 0.0195354 0)
(1.92789 0.0184453 0)
(1.90221 0.0174318 0)
(1.87791 0.0164874 0)
(1.8549 0.0156055 0)
(1.83309 0.0147805 0)
(1.8124 0.0140071 0)
(1.79277 0.0132808 0)
(1.77414 0.0125975 0)
(1.75645 0.0119535 0)
(1.73964 0.0113454 0)
(1.72367 0.0107703 0)
(1.70849 0.0102254 0)
(1.69406 0.00970823 0)
(1.68035 0.00921656 0)
(1.66732 0.0087483 0)
(1.65494 0.00830156 0)
(1.64318 0.00787458 0)
(1.63201 0.00746574 0)
(1.62141 0.00707354 0)
(1.61136 0.00669658 0)
(1.60183 0.00633354 0)
(1.59281 0.00598318 0)
(1.58428 0.00564435 0)
(1.57622 0.00531591 0)
(1.56862 0.00499682 0)
(1.56146 0.00468603 0)
(1.55474 0.00438255 0)
(1.54845 0.00408541 0)
(1.54257 0.00379362 0)
(1.5371 0.00350622 0)
(1.53203 0.00322224 0)
(1.52736 0.00294068 0)
(1.52308 0.0026605 0)
(1.5192 0.00238062 0)
(1.51571 0.00209989 0)
(1.51262 0.0018171 0)
(1.50992 0.00153089 0)
(1.50762 0.00123979 0)
(1.50573 0.000942147 0)
(1.50426 0.000636092 0)
(1.50322 0.000319476 0)
(1.50262 -1.0199e-05 0)
(1.50249 -0.000355881 0)
(1.50284 -0.000721096 0)
(1.50371 -0.00111012 0)
(1.50512 -0.00152822 0)
(1.50712 -0.00198203 0)
(1.50977 -0.00248005 0)
(1.51311 -0.0030335 0)
(1.51725 -0.0036577 0)
(1.52227 -0.00437447 0)
(1.52833 -0.00521646 0)
(1.53559 -0.00623529 0)
(1.54433 -0.00751729 0)
(1.55493 -0.0092145 0)
(1.56795 -0.0116067 0)
(1.5843 -0.0152274 0)
(1.6054 -0.0211211 0)
(1.63355 -0.0313588 0)
(1.67249 -0.0500006 0)
(1.72876 -0.085032 0)
(1.81154 -0.153214 0)
(1.90542 -0.287728 0)
(10.1768 1.34552 0)
(10.7882 2.53796 0)
(10.9413 2.66465 0)
(10.5996 2.36741 0)
(10.0101 1.96119 0)
(9.34896 1.57591 0)
(8.70054 1.25812 0)
(8.104 1.01158 0)
(7.57283 0.824102 0)
(7.10615 0.681515 0)
(6.69746 0.572031 0)
(6.33897 0.486775 0)
(6.02324 0.419338 0)
(5.74373 0.365157 0)
(5.4949 0.320983 0)
(5.27219 0.284481 0)
(5.0718 0.253952 0)
(4.89062 0.22814 0)
(4.72607 0.206103 0)
(4.576 0.187125 0)
(4.43862 0.170653 0)
(4.31241 0.156253 0)
(4.1961 0.143585 0)
(4.08861 0.132375 0)
(3.98898 0.122401 0)
(3.89643 0.113484 0)
(3.81025 0.105476 0)
(3.72984 0.0982529 0)
(3.65467 0.0917134 0)
(3.58426 0.0857712 0)
(3.51822 0.0803534 0)
(3.45616 0.0753982 0)
(3.39779 0.0708527 0)
(3.34279 0.0666713 0)
(3.29092 0.0628148 0)
(3.24194 0.0592491 0)
(3.19565 0.0559443 0)
(3.15185 0.0528746 0)
(3.11038 0.050017 0)
(3.07108 0.0473515 0)
(3.03382 0.0448601 0)
(2.99846 0.042527 0)
(2.96488 0.0403382 0)
(2.93299 0.038281 0)
(2.90268 0.036344 0)
(2.87386 0.0345171 0)
(2.84646 0.0327912 0)
(2.82039 0.0311579 0)
(2.79559 0.0296096 0)
(2.77199 0.0281395 0)
(2.74954 0.0267413 0)
(2.72817 0.0254094 0)
(2.70785 0.0241382 0)
(2.68852 0.0229231 0)
(2.67014 0.0217596 0)
(2.65267 0.0206433 0)
(2.63608 0.0195704 0)
(2.62033 0.0185373 0)
(2.60539 0.0175405 0)
(2.59123 0.0165767 0)
(2.57784 0.0156429 0)
(2.56518 0.0147361 0)
(2.55323 0.0138534 0)
(2.54199 0.0129921 0)
(2.53142 0.0121494 0)
(2.52152 0.0113227 0)
(2.51227 0.0105093 0)
(2.50366 0.00970645 0)
(2.49569 0.0089115 0)
(2.48835 0.0081216 0)
(2.48163 0.00733379 0)
(2.47554 0.00654497 0)
(2.47006 0.0057518 0)
(2.46522 0.00495067 0)
(2.46101 0.00413761 0)
(2.45744 0.00330817 0)
(2.45453 0.00245736 0)
(2.45228 0.00157943 0)
(2.45074 0.000667738 0)
(2.44991 -0.000285567 0)
(2.44983 -0.00128985 0)
(2.45054 -0.00235647 0)
(2.4521 -0.00349944 0)
(2.45455 -0.00473639 0)
(2.45798 -0.00608992 0)
(2.46247 -0.00758975 0)
(2.46815 -0.00927617 0)
(2.47515 -0.0112056 0)
(2.48368 -0.0134599 0)
(2.49397 -0.0161631 0)
(2.50637 -0.0195103 0)
(2.52135 -0.0238192 0)
(2.53955 -0.0296241 0)
(2.56189 -0.037842 0)
(2.5896 -0.0500668 0)
(2.62433 -0.0690581 0)
(2.66803 -0.0994726 0)
(2.72248 -0.148876 0)
(2.78654 -0.228751 0)
(2.8438 -0.35034 0)
(10.0798 0.823404 0)
(10.5966 1.94652 0)
(11.0631 2.45331 0)
(11.2347 2.5306 0)
(11.1193 2.36878 0)
(10.8127 2.10352 0)
(10.4012 1.81896 0)
(9.94654 1.55632 0)
(9.48817 1.32975 0)
(9.04791 1.14033 0)
(8.63602 0.984022 0)
(8.25611 0.855398 0)
(7.90821 0.749227 0)
(7.59062 0.661048 0)
(7.30087 0.587251 0)
(7.03628 0.524987 0)
(6.79427 0.472024 0)
(6.57242 0.42662 0)
(6.36858 0.387407 0)
(6.18083 0.353307 0)
(6.00747 0.323461 0)
(5.84703 0.297184 0)
(5.6982 0.273922 0)
(5.55984 0.253223 0)
(5.43096 0.234718 0)
(5.31067 0.218102 0)
(5.1982 0.20312 0)
(5.09286 0.189562 0)
(4.99404 0.177247 0)
(4.9012 0.166025 0)
(4.81385 0.155766 0)
(4.73157 0.146361 0)
(4.65397 0.137714 0)
(4.58069 0.129744 0)
(4.51143 0.122379 0)
(4.4459 0.115558 0)
(4.38385 0.109226 0)
(4.32503 0.103335 0)
(4.26925 0.0978439 0)
(4.2163 0.092715 0)
(4.16601 0.0879154 0)
(4.11822 0.0834159 0)
(4.07278 0.07919 0)
(4.02955 0.0752144 0)
(3.98841 0.0714679 0)
(3.94925 0.0679313 0)
(3.91196 0.0645876 0)
(3.87644 0.0614211 0)
(3.8426 0.0584175 0)
(3.81037 0.055564 0)
(3.77965 0.0528486 0)
(3.75039 0.0502606 0)
(3.72252 0.0477899 0)
(3.69598 0.0454272 0)
(3.6707 0.0431641 0)
(3.64665 0.0409926 0)
(3.62376 0.0389052 0)
(3.60201 0.0368951 0)
(3.58134 0.0349556 0)
(3.56173 0.0330805 0)
(3.54313 0.0312641 0)
(3.52551 0.0295006 0)
(3.50886 0.0277846 0)
(3.49313 0.0261108 0)
(3.47832 0.0244741 0)
(3.4644 0.0228695 0)
(3.45135 0.0212918 0)
(3.43916 0.019736 0)
(3.42782 0.018197 0)
(3.41731 0.0166694 0)
(3.40764 0.0151477 0)
(3.39879 0.0136261 0)
(3.39077 0.0120984 0)
(3.38359 0.0105579 0)
(3.37723 0.00899726 0)
(3.37173 0.00740828 0)
(3.36708 0.00578178 0)
(3.36331 0.00410726 0)
(3.36044 0.00237258 0)
(3.35851 0.000563482 0)
(3.35756 -0.001337 0)
(3.35761 -0.00334938 0)
(3.35875 -0.00549887 0)
(3.36103 -0.00781697 0)
(3.36454 -0.0103439 0)
(3.36939 -0.0131319 0)
(3.3757 -0.0162511 0)
(3.38364 -0.0197973 0)
(3.39341 -0.0239063 0)
(3.40529 -0.0287753 0)
(3.41959 -0.0346998 0)
(3.43675 -0.0421332 0)
(3.4573 -0.0517842 0)
(3.48191 -0.0647707 0)
(3.5113 -0.0828523 0)
(3.54613 -0.10874 0)
(3.58657 -0.146402 0)
(3.63146 -0.201123 0)
(3.67635 -0.278487 0)
(3.70949 -0.379338 0)
(10.0426 0.546327 0)
(10.395 1.45871 0)
(10.8535 2.05167 0)
(11.2147 2.3376 0)
(11.3915 2.39321 0)
(11.3902 2.30059 0)
(11.2486 2.12908 0)
(11.01 1.92741 0)
(10.7129 1.72445 0)
(10.3863 1.53489 0)
(10.0505 1.36477 0)
(9.71811 1.21532 0)
(9.39674 1.08543 0)
(9.09052 0.973019 0)
(8.80136 0.875771 0)
(8.52981 0.791474 0)
(8.27559 0.718158 0)
(8.03799 0.654131 0)
(7.81607 0.597969 0)
(7.60878 0.54848 0)
(7.41506 0.504675 0)
(7.23387 0.465728 0)
(7.06425 0.430954 0)
(6.90528 0.39978 0)
(6.75612 0.371726 0)
(6.61601 0.346387 0)
(6.48425 0.32342 0)
(6.36019 0.302536 0)
(6.24326 0.283488 0)
(6.13294 0.266062 0)
(6.02873 0.250076 0)
(5.93021 0.235373 0)
(5.83698 0.221816 0)
(5.74868 0.209286 0)
(5.66497 0.197679 0)
(5.58556 0.186904 0)
(5.51017 0.17688 0)
(5.43855 0.167536 0)
(5.37047 0.15881 0)
(5.30571 0.150646 0)
(5.24408 0.142995 0)
(5.1854 0.13581 0)
(5.12951 0.129054 0)
(5.07624 0.122689 0)
(5.02547 0.116685 0)
(4.97706 0.11101 0)
(4.93088 0.105639 0)
(4.88683 0.100548 0)
(4.84481 0.0957149 0)
(4.80471 0.0911194 0)
(4.76646 0.0867432 0)
(4.72995 0.0825694 0)
(4.69513 0.0785824 0)
(4.66192 0.0747678 0)
(4.63025 0.0711123 0)
(4.60006 0.0676033 0)
(4.5713 0.0642292 0)
(4.54391 0.0609792 0)
(4.51785 0.0578428 0)
(4.49307 0.0548104 0)
(4.46952 0.0518728 0)
(4.44719 0.049021 0)
(4.42602 0.0462464 0)
(4.40598 0.0435409 0)
(4.38706 0.0408963 0)
(4.36923 0.0383046 0)
(4.35246 0.035758 0)
(4.33674 0.0332484 0)
(4.32205 0.0307678 0)
(4.30838 0.028308 0)
(4.29572 0.0258603 0)
(4.28406 0.0234158 0)
(4.27341 0.0209648 0)
(4.26375 0.018497 0)
(4.25511 0.0160012 0)
(4.24748 0.0134649 0)
(4.24089 0.010874 0)
(4.23535 0.00821272 0)
(4.23088 0.00546271 0)
(4.22752 0.00260259 0)
(4.2253 -0.000392944 0)
(4.22428 -0.00355432 0)
(4.22451 -0.00691864 0)
(4.22607 -0.0105319 0)
(4.22904 -0.0144522 0)
(4.23353 -0.0187541 0)
(4.23966 -0.0235356 0)
(4.24759 -0.028928 0)
(4.25751 -0.0351112 0)
(4.26964 -0.0423376 0)
(4.28427 -0.0509677 0)
(4.3017 -0.0615245 0)
(4.32229 -0.0747744 0)
(4.34637 -0.0918378 0)
(4.37415 -0.114329 0)
(4.40551 -0.144486 0)
(4.4396 -0.185177 0)
(4.47417 -0.239519 0)
(4.50471 -0.309575 0)
(4.52366 -0.393093 0)
(10.0236 0.385467 0)
(10.2537 1.09647 0)
(10.6178 1.64946 0)
(10.9919 2.01127 0)
(11.2853 2.19917 0)
(11.4636 2.24891 0)
(11.5246 2.20124 0)
(11.4831 2.09341 0)
(11.3611 1.95415 0)
(11.1816 1.80313 0)
(10.964 1.65259 0)
(10.7238 1.50944 0)
(10.4724 1.37705 0)
(10.2179 1.25663 0)
(9.96593 1.14815 0)
(9.71999 1.05092 0)
(9.48236 0.96398 0)
(9.25434 0.886265 0)
(9.03658 0.816736 0)
(8.82928 0.754426 0)
(8.63236 0.698464 0)
(8.44557 0.648078 0)
(8.26851 0.602593 0)
(8.10076 0.561419 0)
(7.94183 0.524046 0)
(7.79126 0.490031 0)
(7.64856 0.458991 0)
(7.51327 0.430593 0)
(7.38494 0.404546 0)
(7.26317 0.380598 0)
(7.14756 0.35853 0)
(7.03773 0.338147 0)
(6.93333 0.319282 0)
(6.83406 0.301785 0)
(6.7396 0.285524 0)
(6.64967 0.270384 0)
(6.56402 0.25626 0)
(6.48241 0.243062 0)
(6.4046 0.230707 0)
(6.3304 0.219123 0)
(6.2596 0.208243 0)
(6.19203 0.198008 0)
(6.12752 0.188366 0)
(6.06591 0.179268 0)
(6.00706 0.170671 0)
(5.95083 0.162534 0)
(5.89711 0.154824 0)
(5.84576 0.147505 0)
(5.79668 0.14055 0)
(5.74977 0.133929 0)
(5.70494 0.127618 0)
(5.66209 0.121593 0)
(5.62115 0.115833 0)
(5.58203 0.110319 0)
(5.54467 0.10503 0)
(5.509 0.0999504 0)
(5.47495 0.0950635 0)
(5.44247 0.0903542 0)
(5.41151 0.085808 0)
(5.38202 0.0814113 0)
(5.35395 0.0771511 0)
(5.32726 0.0730149 0)
(5.30192 0.0689908 0)
(5.27788 0.0650671 0)
(5.25511 0.0612325 0)
(5.2336 0.0574757 0)
(5.21331 0.0537857 0)
(5.19423 0.0501514 0)
(5.17632 0.0465614 0)
(5.15959 0.0430042 0)
(5.14402 0.039468 0)
(5.12959 0.03594 0)
(5.11632 0.0324072 0)
(5.10418 0.0288553 0)
(5.0932 0.0252688 0)
(5.08337 0.0216307 0)
(5.07471 0.0179219 0)
(5.06723 0.014121 0)
(5.06097 0.0102034 0)
(5.05594 0.00614047 0)
(5.0522 0.0018987 0)
(5.04977 -0.00256191 0)
(5.04872 -0.00728973 0)
(5.04912 -0.012344 0)
(5.05104 -0.0177987 0)
(5.05458 -0.0237471 0)
(5.05985 -0.0303092 0)
(5.06698 -0.0376422 0)
(5.07613 -0.0459547 0)
(5.08746 -0.0555284 0)
(5.10116 -0.0667481 0)
(5.11741 -0.0801439 0)
(5.13638 -0.0964458 0)
(5.15811 -0.116649 0)
(5.18245 -0.142073 0)
(5.20882 -0.174376 0)
(5.23597 -0.215417 0)
(5.26158 -0.266818 0)
(5.282 -0.328954 0)
(5.29254 -0.399165 0)
(10.0134 0.283932 0)
(10.1646 0.837129 0)
(10.4345 1.31435 0)
(10.7555 1.67872 0)
(11.0609 1.92454 0)
(11.3107 2.06215 0)
(11.4851 2.11034 0)
(11.5793 2.09127 0)
(11.5987 2.02602 0)
(11.5545 1.93202 0)
(11.4596 1.82252 0)
(11.3265 1.70686 0)
(11.166 1.59123 0)
(10.9871 1.47947 0)
(10.797 1.37372 0)
(10.6009 1.27506 0)
(10.403 1.18383 0)
(10.2061 1.09994 0)
(10.0124 1.02306 0)
(9.82323 0.952719 0)
(9.63962 0.888409 0)
(9.46217 0.829599 0)
(9.29121 0.77578 0)
(9.12691 0.726474 0)
(8.96927 0.681239 0)
(8.81823 0.639676 0)
(8.67365 0.601424 0)
(8.53533 0.566159 0)
(8.40307 0.533589 0)
(8.27664 0.503456 0)
(8.15578 0.475529 0)
(8.04027 0.449602 0)
(7.92986 0.42549 0)
(7.82431 0.403028 0)
(7.7234 0.382069 0)
(7.62691 0.362482 0)
(7.53463 0.344148 0)
(7.44636 0.32696 0)
(7.3619 0.310823 0)
(7.28108 0.295651 0)
(7.20373 0.281364 0)
(7.12969 0.267893 0)
(7.0588 0.255174 0)
(6.99092 0.243147 0)
(6.92591 0.23176 0)
(6.86366 0.220965 0)
(6.80403 0.210716 0)
(6.74691 0.200973 0)
(6.6922 0.1917 0)
(6.63981 0.182861 0)
(6.58963 0.174424 0)
(6.54158 0.166361 0)
(6.49557 0.158644 0)
(6.45154 0.151247 0)
(6.4094 0.144147 0)
(6.36909 0.137323 0)
(6.33055 0.130752 0)
(6.29372 0.124416 0)
(6.25854 0.118295 0)
(6.22496 0.112373 0)
(6.19294 0.106633 0)
(6.16243 0.101058 0)
(6.13339 0.0956324 0)
(6.10579 0.0903421 0)
(6.07959 0.0851719 0)
(6.05477 0.0801072 0)
(6.03129 0.0751336 0)
(6.00913 0.0702368 0)
(5.98827 0.0654021 0)
(5.96871 0.0606146 0)
(5.95041 0.0558588 0)
(5.93338 0.0511188 0)
(5.9176 0.0463775 0)
(5.90307 0.0416167 0)
(5.88981 0.0368167 0)
(5.8778 0.031956 0)
(5.86706 0.0270107 0)
(5.85761 0.0219539 0)
(5.84946 0.016755 0)
(5.84265 0.0113788 0)
(5.8372 0.00578417 0)
(5.83316 -7.72676e-05 0)
(5.83057 -0.00626347 0)
(5.82949 -0.0128446 0)
(5.82999 -0.0199066 0)
(5.83214 -0.0275564 0)
(5.83604 -0.0359284 0)
(5.84177 -0.045194 0)
(5.84945 -0.0555738 0)
(5.85919 -0.0673549 0)
(5.87107 -0.0809129 0)
(5.88516 -0.0967393 0)
(5.90147 -0.115473 0)
(5.91984 -0.13793 0)
(5.93991 -0.165106 0)
(5.96091 -0.198138 0)
(5.98155 -0.238132 0)
(5.99983 -0.285805 0)
(6.01306 -0.340821 0)
(6.01831 -0.400891 0)
(10.0083 0.218049 0)
(10.1103 0.654758 0)
(10.3067 1.055 0)
(10.5624 1.38944 0)
(10.8344 1.64653 0)
(11.0904 1.82572 0)
(11.3082 1.93337 0)
(11.475 1.98028 0)
(11.5858 1.97912 0)
(11.642 1.94227 0)
(11.6488 1.88061 0)
(11.6134 1.80302 0)
(11.5434 1.71634 0)
(11.446 1.62561 0)
(11.3277 1.53434 0)
(11.1942 1.4449 0)
(11.05 1.35879 0)
(10.8989 1.27689 0)
(10.7437 1.19964 0)
(10.5869 1.1272 0)
(10.4302 1.05955 0)
(10.2749 0.996514 0)
(10.122 0.93788 0)
(9.97238 0.883382 0)
(9.82643 0.832739 0)
(9.68455 0.785672 0)
(9.54697 0.741907 0)
(9.41383 0.701184 0)
(9.2852 0.663259 0)
(9.16107 0.627904 0)
(9.04141 0.594911 0)
(8.92614 0.564086 0)
(8.81518 0.535253 0)
(8.70842 0.508251 0)
(8.60574 0.482932 0)
(8.50701 0.459163 0)
(8.4121 0.436822 0)
(8.32088 0.415796 0)
(8.23321 0.395984 0)
(8.14897 0.377295 0)
(8.06803 0.359641 0)
(7.99027 0.342947 0)
(7.91556 0.327141 0)
(7.84379 0.312158 0)
(7.77485 0.297938 0)
(7.70863 0.284427 0)
(7.64503 0.271573 0)
(7.58395 0.259331 0)
(7.52529 0.247656 0)
(7.46898 0.236509 0)
(7.41492 0.225852 0)
(7.36303 0.215652 0)
(7.31324 0.205876 0)
(7.26549 0.196494 0)
(7.21969 0.187478 0)
(7.17579 0.178801 0)
(7.13373 0.170439 0)
(7.09345 0.162368 0)
(7.0549 0.154566 0)
(7.01803 0.147011 0)
(6.9828 0.139683 0)
(6.94916 0.132562 0)
(6.91707 0.12563 0)
(6.88649 0.118868 0)
(6.8574 0.112259 0)
(6.82977 0.105783 0)
(6.80356 0.0994245 0)
(6.77875 0.0931649 0)
(6.75533 0.0869864 0)
(6.73327 0.080871 0)
(6.71256 0.0747998 0)
(6.69319 0.0687532 0)
(6.67515 0.0627107 0)
(6.65844 0.0566504 0)
(6.64306 0.0505484 0)
(6.62901 0.0443792 0)
(6.6163 0.0381142 0)
(6.60493 0.0317216 0)
(6.59493 0.0251656 0)
(6.58632 0.0184052 0)
(6.57912 0.0113931 0)
(6.57337 0.004074 0)
(6.56911 -0.00361727 0)
(6.56637 -0.0117586 0)
(6.56522 -0.0204441 0)
(6.5657 -0.0297881 0)
(6.56788 -0.0399317 0)
(6.57182 -0.0510495 0)
(6.57758 -0.06336 0)
(6.5852 -0.0771369 0)
(6.59471 -0.0927238 0)
(6.60607 -0.110549 0)
(6.61916 -0.131139 0)
(6.63374 -0.155121 0)
(6.64932 -0.183207 0)
(6.66514 -0.216123 0)
(6.68002 -0.25447 0)
(6.69237 -0.298455 0)
(6.70028 -0.347504 0)
(6.70188 -0.399824 0)
(10.0055 0.17357 0)
(10.0768 0.525167 0)
(10.2204 0.858825 0)
(10.4186 1.1536 0)
(10.6449 1.39842 0)
(10.8768 1.58915 0)
(11.0959 1.72636 0)
(11.2885 1.81425 0)
(11.4456 1.85931 0)
(11.5631 1.86908 0)
(11.6407 1.85109 0)
(11.6803 1.81229 0)
(11.6858 1.75864 0)
(11.6616 1.69507 0)
(11.6124 1.62545 0)
(11.5426 1.55275 0)
(11.4564 1.47915 0)
(11.3572 1.40621 0)
(11.2484 1.33501 0)
(11.1325 1.26628 0)
(11.0116 1.20044 0)
(10.8876 1.13775 0)
(10.762 1.0783 0)
(10.6358 1.0221 0)
(10.5101 0.969092 0)
(10.3856 0.919155 0)
(10.2628 0.872159 0)
(10.1422 0.827951 0)
(10.0242 0.786373 0)
(9.90887 0.747265 0)
(9.79653 0.710471 0)
(9.68726 0.675839 0)
(9.58114 0.643222 0)
(9.4782 0.612484 0)
(9.37845 0.583496 0)
(9.28188 0.556136 0)
(9.18846 0.530291 0)
(9.09813 0.505857 0)
(9.01086 0.482735 0)
(8.92657 0.460836 0)
(8.84519 0.440074 0)
(8.76666 0.420372 0)
(8.69089 0.401658 0)
(8.61782 0.383864 0)
(8.54737 0.366929 0)
(8.47946 0.350794 0)
(8.41402 0.335406 0)
(8.35097 0.320716 0)
(8.29025 0.306675 0)
(8.23177 0.293242 0)
(8.17549 0.280375 0)
(8.12132 0.268036 0)
(8.06922 0.256191 0)
(8.01911 0.244804 0)
(7.97094 0.233846 0)
(7.92467 0.223285 0)
(7.88022 0.213094 0)
(7.83757 0.203247 0)
(7.79665 0.193717 0)
(7.75743 0.18448 0)
(7.71986 0.175513 0)
(7.68391 0.166793 0)
(7.64954 0.158299 0)
(7.61672 0.150008 0)
(7.58542 0.1419 0)
(7.5556 0.133955 0)
(7.52725 0.126152 0)
(7.50034 0.11847 0)
(7.47485 0.110888 0)
(7.45076 0.103385 0)
(7.42806 0.0959391 0)
(7.40675 0.088528 0)
(7.3868 0.0811274 0)
(7.36822 0.0737121 0)
(7.351 0.0662549 0)
(7.33515 0.0587261 0)
(7.32067 0.0510935 0)
(7.30757 0.0433211 0)
(7.29585 0.0353687 0)
(7.28555 0.0271907 0)
(7.27667 0.0187352 0)
(7.26924 0.0099419 0)
(7.26329 0.000740823 0)
(7.25885 -0.00895045 0)
(7.25596 -0.0192296 0)
(7.25464 -0.0302135 0)
(7.25493 -0.0420424 0)
(7.25687 -0.0548859 0)
(7.26046 -0.0689494 0)
(7.2657 -0.0844815 0)
(7.27256 -0.101781 0)
(7.28093 -0.121205 0)
(7.29063 -0.143165 0)
(7.30135 -0.168124 0)
(7.31259 -0.196561 0)
(7.32366 -0.228911 0)
(7.33356 -0.265451 0)
(7.34108 -0.306126 0)
(7.34485 -0.350328 0)
(7.34368 -0.396694 0)
(10.004 0.142116 0)
(10.0556 0.43093 0)
(10.1623 0.710479 0)
(10.3151 0.966307 0)
(10.4981 1.18946 0)
(10.6962 1.37528 0)
(10.8963 1.52216 0)
(11.0866 1.63103 0)
(11.2582 1.70474 0)
(11.4049 1.74733 0)
(11.5232 1.76344 0)
(11.6122 1.75783 0)
(11.6723 1.73499 0)
(11.7052 1.69899 0)
(11.7135 1.65333 0)
(11.7 1.60092 0)
(11.6677 1.54412 0)
(11.6194 1.4848 0)
(11.5578 1.4244 0)
(11.4853 1.36399 0)
(11.4041 1.30438 0)
(11.3162 1.24615 0)
(11.223 1.18968 0)
(11.126 1.13525 0)
(11.0264 1.08299 0)
(10.9252 1.033 0)
(10.8231 0.985292 0)
(10.7209 0.939849 0)
(10.6191 0.896622 0)
(10.5182 0.855542 0)
(10.4184 0.816527 0)
(10.3202 0.779487 0)
(10.2238 0.744327 0)
(10.1293 0.710951 0)
(10.0368 0.679263 0)
(9.94655 0.649169 0)
(9.85854 0.620579 0)
(9.77284 0.593404 0)
(9.68947 0.567562 0)
(9.60845 0.542972 0)
(9.52978 0.519559 0)
(9.45344 0.497251 0)
(9.37943 0.475982 0)
(9.3077 0.455687 0)
(9.23824 0.436307 0)
(9.171 0.417786 0)
(9.10594 0.40007 0)
(9.04303 0.38311 0)
(8.98222 0.366859 0)
(8.92347 0.351272 0)
(8.86673 0.336308 0)
(8.81196 0.321928 0)
(8.75911 0.308094 0)
(8.70815 0.294771 0)
(8.65902 0.281926 0)
(8.6117 0.269526 0)
(8.56613 0.257542 0)
(8.52228 0.245945 0)
(8.48012 0.234707 0)
(8.43961 0.223801 0)
(8.40071 0.213202 0)
(8.36339 0.202885 0)
(8.32763 0.192825 0)
(8.29339 0.182999 0)
(8.26066 0.173384 0)
(8.2294 0.163956 0)
(8.1996 0.154692 0)
(8.17123 0.14557 0)
(8.14428 0.136566 0)
(8.11873 0.127656 0)
(8.09457 0.118816 0)
(8.0718 0.110019 0)
(8.0504 0.101241 0)
(8.03036 0.0924509 0)
(8.01169 0.0836203 0)
(7.99438 0.0747162 0)
(7.97845 0.0657029 0)
(7.96388 0.0565413 0)
(7.9507 0.047188 0)
(7.93891 0.0375941 0)
(7.92852 0.0277045 0)
(7.91956 0.0174561 0)
(7.91203 0.00677655 0)
(7.90596 -0.00441812 0)
(7.90137 -0.0162256 0)
(7.89826 -0.0287603 0)
(7.89665 -0.0421566 0)
(7.89654 -0.0565728 0)
(7.89791 -0.0721945 0)
(7.90072 -0.0892389 0)
(7.90488 -0.107957 0)
(7.91026 -0.128632 0)
(7.91663 -0.151578 0)
(7.92367 -0.177118 0)
(7.93093 -0.205559 0)
(7.93777 -0.237137 0)
(7.94342 -0.271934 0)
(7.94694 -0.309771 0)
(7.94739 -0.350087 0)
(7.94395 -0.391851 0)
(10.003 0.118956 0)
(10.0416 0.360616 0)
(10.1226 0.59713 0)
(10.2413 0.818516 0)
(10.3879 1.01794 0)
(10.5528 1.19126 0)
(10.7269 1.33633 0)
(10.9012 1.45271 0)
(11.0683 1.54134 0)
(11.222 1.60418 0)
(11.3581 1.64384 0)
(11.4738 1.6633 0)
(11.5678 1.66562 0)
(11.6398 1.6538 0)
(11.6905 1.63061 0)
(11.7212 1.59855 0)
(11.7335 1.55977 0)
(11.7293 1.51609 0)
(11.7106 1.46905 0)
(11.6791 1.41988 0)
(11.6367 1.36956 0)
(11.5852 1.31887 0)
(11.526 1.26842 0)
(11.4604 1.21865 0)
(11.3898 1.16992 0)
(11.3151 1.12246 0)
(11.2374 1.07645 0)
(11.1573 1.03199 0)
(11.0757 0.989147 0)
(10.9931 0.947955 0)
(10.9099 0.908414 0)
(10.8267 0.870507 0)
(10.7439 0.8342 0)
(10.6616 0.799451 0)
(10.5801 0.766207 0)
(10.4997 0.734413 0)
(10.4206 0.70401 0)
(10.3428 0.674937 0)
(10.2666 0.647133 0)
(10.1919 0.620537 0)
(10.1188 0.595089 0)
(10.0475 0.570731 0)
(9.97787 0.547407 0)
(9.91003 0.52506 0)
(9.84398 0.50364 0)
(9.77971 0.483096 0)
(9.71724 0.463379 0)
(9.65656 0.444443 0)
(9.59765 0.426244 0)
(9.54051 0.40874 0)
(9.48511 0.391891 0)
(9.43144 0.375659 0)
(9.37948 0.360006 0)
(9.3292 0.344897 0)
(9.28059 0.3303 0)
(9.23361 0.316182 0)
(9.18824 0.302512 0)
(9.14446 0.28926 0)
(9.10224 0.276398 0)
(9.06157 0.263897 0)
(9.02241 0.251731 0)
(8.98475 0.239874 0)
(8.94856 0.2283 0)
(8.91382 0.216983 0)
(8.88052 0.205898 0)
(8.84864 0.195022 0)
(8.81816 0.184328 0)
(8.78906 0.173791 0)
(8.76134 0.163388 0)
(8.73498 0.153091 0)
(8.70998 0.142874 0)
(8.68632 0.13271 0)
(8.66399 0.122569 0)
(8.643 0.112422 0)
(8.62334 0.102235 0)
(8.60501 0.0919735 0)
(8.58802 0.0816002 0)
(8.57236 0.0710734 0)
(8.55804 0.0603475 0)
(8.54506 0.0493718 0)
(8.53344 0.0380894 0)
(8.52318 0.0264365 0)
(8.51429 0.0143404 0)
(8.50678 0.00171832 0)
(8.50064 -0.0115244 0)
(8.49588 -0.0254964 0)
(8.49249 -0.0403224 0)
(8.49044 -0.0561453 0)
(8.48969 -0.0731279 0)
(8.49017 -0.0914538 0)
(8.49177 -0.111327 0)
(8.49433 -0.132967 0)
(8.49761 -0.156601 0)
(8.50132 -0.182448 0)
(8.50503 -0.21069 0)
(8.50822 -0.241432 0)
(8.51027 -0.274645 0)
(8.51049 -0.310101 0)
(8.50819 -0.347311 0)
(8.50283 -0.385489 0)
(10.0023 0.101321 0)
(10.0321 0.306804 0)
(10.095 0.509159 0)
(10.1884 0.701369 0)
(10.3061 0.8783 0)
(10.4421 1.03655 0)
(10.5899 1.17404 0)
(10.7434 1.28987 0)
(10.8967 1.38412 0)
(11.0446 1.45762 0)
(11.1831 1.51174 0)
(11.3089 1.54823 0)
(11.4199 1.56906 0)
(11.5148 1.57628 0)
(11.593 1.57191 0)
(11.6546 1.55788 0)
(11.7002 1.53596 0)
(11.7306 1.50774 0)
(11.747 1.47461 0)
(11.7506 1.43778 0)
(11.7427 1.39827 0)
(11.7245 1.35692 0)
(11.6973 1.31445 0)
(11.6623 1.27141 0)
(11.6206 1.22828 0)
(11.5732 1.18541 0)
(11.5209 1.14308 0)
(11.4647 1.10152 0)
(11.4053 1.06089 0)
(11.3432 1.0213 0)
(11.2791 0.982845 0)
(11.2135 0.945573 0)
(11.1469 0.909516 0)
(11.0795 0.874687 0)
(11.0119 0.841083 0)
(10.9441 0.808691 0)
(10.8766 0.77749 0)
(10.8094 0.74745 0)
(10.7429 0.71854 0)
(10.6771 0.690723 0)
(10.6122 0.66396 0)
(10.5482 0.63821 0)
(10.4854 0.613433 0)
(10.4237 0.589588 0)
(10.3633 0.566633 0)
(10.3041 0.544528 0)
(10.2462 0.523233 0)
(10.1897 0.502707 0)
(10.1346 0.482915 0)
(10.0809 0.463817 0)
(10.0285 0.445378 0)
(9.97761 0.427563 0)
(9.92812 0.410338 0)
(9.88004 0.39367 0)
(9.83338 0.377527 0)
(9.78813 0.361879 0)
(9.74429 0.346695 0)
(9.70184 0.331946 0)
(9.66078 0.317603 0)
(9.62109 0.30364 0)
(9.58278 0.290028 0)
(9.54582 0.276741 0)
(9.5102 0.263753 0)
(9.47592 0.251038 0)
(9.44296 0.23857 0)
(9.41132 0.226323 0)
(9.38099 0.214271 0)
(9.35195 0.202389 0)
(9.3242 0.190649 0)
(9.29773 0.179025 0)
(9.27254 0.167488 0)
(9.24862 0.156009 0)
(9.22598 0.144558 0)
(9.20459 0.133104 0)
(9.18447 0.121611 0)
(9.16562 0.110044 0)
(9.14803 0.0983635 0)
(9.13171 0.0865266 0)
(9.11666 0.0744869 0)
(9.10288 0.0621929 0)
(9.09038 0.0495878 0)
(9.07915 0.0366083 0)
(9.0692 0.0231835 0)
(9.06051 0.00923383 0)
(9.0531 -0.00533008 0)
(9.04693 -0.0206087 0)
(9.04198 -0.0367147 0)
(9.03821 -0.053774 0)
(9.03557 -0.0719253 0)
(9.03396 -0.0913202 0)
(9.03325 -0.11212 0)
(9.03329 -0.134488 0)
(9.03385 -0.158586 0)
(9.03464 -0.184552 0)
(9.0353 -0.212482 0)
(9.03541 -0.242397 0)
(9.03447 -0.274211 0)
(9.03196 -0.307687 0)
(9.0274 -0.342407 0)
(9.02041 -0.377764 0)
(10.0018 0.087513 0)
(10.0254 0.264636 0)
(10.0752 0.43967 0)
(10.1498 0.607563 0)
(10.2452 0.764435 0)
(10.3573 0.907553 0)
(10.4818 1.03511 0)
(10.6143 1.14612 0)
(10.7505 1.2403 0)
(10.8863 1.31792 0)
(11.0183 1.37968 0)
(11.1434 1.42657 0)
(11.2595 1.45981 0)
(11.3647 1.48075 0)
(11.4579 1.49079 0)
(11.5384 1.49133 0)
(11.6062 1.48372 0)
(11.6612 1.46924 0)
(11.7039 1.44905 0)
(11.7349 1.4242 0)
(11.7549 1.39565 0)
(11.7649 1.3642 0)
(11.7656 1.33056 0)
(11.7579 1.29535 0)
(11.7428 1.25905 0)
(11.721 1.22212 0)
(11.6934 1.18489 0)
(11.6606 1.14766 0)
(11.6234 1.11066 0)
(11.5825 1.07408 0)
(11.5383 1.03807 0)
(11.4915 1.00275 0)
(11.4424 0.968194 0)
(11.3916 0.934475 0)
(11.3393 0.901637 0)
(11.286 0.869707 0)
(11.2318 0.838704 0)
(11.1772 0.808631 0)
(11.1223 0.779487 0)
(11.0673 0.751263 0)
(11.0125 0.723942 0)
(10.9579 0.697507 0)
(10.9037 0.671934 0)
(10.85 0.647198 0)
(10.797 0.623274 0)
(10.7447 0.600132 0)
(10.6932 0.577744 0)
(10.6426 0.55608 0)
(10.5929 0.535111 0)
(10.5442 0.514806 0)
(10.4965 0.495135 0)
(10.4498 0.47607 0)
(10.4043 0.457581 0)
(10.3598 0.439638 0)
(10.3165 0.422214 0)
(10.2742 0.40528 0)
(10.2332 0.388809 0)
(10.1933 0.372774 0)
(10.1545 0.357147 0)
(10.117 0.341902 0)
(10.0806 0.327013 0)
(10.0453 0.312454 0)
(10.0113 0.2982 0)
(9.9784 0.284223 0)
(9.94669 0.270499 0)
(9.91616 0.257002 0)
(9.88681 0.243706 0)
(9.85862 0.230583 0)
(9.8316 0.217608 0)
(9.80575 0.204751 0)
(9.78107 0.191985 0)
(9.75756 0.17928 0)
(9.73522 0.166605 0)
(9.71404 0.153926 0)
(9.69403 0.141209 0)
(9.67519 0.128418 0)
(9.65753 0.115512 0)
(9.64103 0.102449 0)
(9.62571 0.0891811 0)
(9.61156 0.0756588 0)
(9.59858 0.0618259 0)
(9.58677 0.0476213 0)
(9.57612 0.0329771 0)
(9.56662 0.0178187 0)
(9.55825 0.00206362 0)
(9.55099 -0.0143792 0)
(9.5448 -0.0316092 0)
(9.53963 -0.0497347 0)
(9.53541 -0.0688717 0)
(9.53203 -0.0891421 0)
(9.52938 -0.11067 0)
(9.52729 -0.133574 0)
(9.52555 -0.157963 0)
(9.5239 -0.183918 0)
(9.52204 -0.211475 0)
(9.51962 -0.240608 0)
(9.51625 -0.271201 0)
(9.51155 -0.303028 0)
(9.50516 -0.335736 0)
(9.49681 -0.368849 0)
(10.0015 0.0764473 0)
(10.0206 0.230882 0)
(10.0608 0.383807 0)
(10.1214 0.531484 0)
(10.1995 0.670942 0)
(10.2924 0.799987 0)
(10.3972 0.91709 0)
(10.5107 1.02132 0)
(10.6297 1.11228 0)
(10.7512 1.18996 0)
(10.8724 1.25471 0)
(10.9908 1.3071 0)
(11.1044 1.34787 0)
(11.2113 1.37791 0)
(11.3102 1.39816 0)
(11.4002 1.4096 0)
(11.4807 1.41324 0)
(11.5511 1.41002 0)
(11.6116 1.40089 0)
(11.6622 1.3867 0)
(11.7032 1.36825 0)
(11.735 1.34626 0)
(11.7582 1.32138 0)
(11.7732 1.29419 0)
(11.7808 1.26519 0)
(11.7815 1.23481 0)
(11.7759 1.20345 0)
(11.7647 1.17142 0)
(11.7484 1.139 0)
(11.7276 1.10641 0)
(11.7028 1.07385 0)
(11.6745 1.04148 0)
(11.6431 1.00943 0)
(11.6091 0.977807 0)
(11.5728 0.946692 0)
(11.5346 0.916152 0)
(11.4948 0.886237 0)
(11.4537 0.856985 0)
(11.4116 0.828421 0)
(11.3687 0.800561 0)
(11.3251 0.773416 0)
(11.2812 0.746987 0)
(11.237 0.721272 0)
(11.1927 0.696263 0)
(11.1485 0.671948 0)
(11.1045 0.648315 0)
(11.0607 0.625347 0)
(11.0173 0.603025 0)
(10.9744 0.58133 0)
(10.9321 0.56024 0)
(10.8903 0.539734 0)
(10.8492 0.51979 0)
(10.8088 0.500384 0)
(10.7691 0.481492 0)
(10.7303 0.463092 0)
(10.6923 0.445159 0)
(10.6551 0.427669 0)
(10.6188 0.410598 0)