/*--------------------------------*- C++ -*----------------------------------*\
| =========                 |                                                 |
| \\      /  F ield         | OpenFOAM: The Open Source CFD Toolbox           |
|  \\    /   O peration     | Version:  2406                                  |
|   \\  /    A nd           | Website:  www.openfoam.com                      |
|    \\/     M anipulation  |                                                 |
\*---------------------------------------------------------------------------*/
FoamFile
{
    version     2.0;
    format      ascii;
    arch        "LSB;label=32;scalar=64";
    class       volScalarField;
    location    "550";
    object      p;
}
// * * * * * * * * * * * * * * * * * * * * * * * * * * * * * * * * * * * * * //

dimensions      [0 2 -2 0 0 0 0];

internalField   nonuniform List<scalar> 
150000
(
235.228
128.088
71.0989
47.8112
34.4568
25.644
19.876
15.9022
12.9538
10.6459
8.77023
7.20047
5.85612
4.68391
3.64695
2.71865
1.8792
1.11348
0.409673
-0.241586
-0.847864
-1.41534
-1.94912
-2.45347
-2.93198
-3.38768
-3.8232
-4.24076
-4.64231
-5.02954
-5.40393
-5.76678
-6.11925
-6.46235
-6.79699
-7.12398
-7.44406
-7.75788
-8.06604
-8.36907
-8.66746
-8.96167
-9.25209
-9.53911
-9.82306
-10.1043
-10.383
-10.6596
-10.9343
-11.2073
-11.4788
-11.7491
-12.0183
-12.2867
-12.5544
-12.8216
-13.0884
-13.3551
-13.6217
-13.8885
-14.1555
-14.423
-14.691
-14.9597
-15.2292
-15.4998
-15.7714
-16.0444
-16.3187
-16.5947
-16.8723
-17.1519
-17.4336
-17.7175
-18.0038
-18.2928
-18.5846
-18.8795
-19.1778
-19.4797
-19.7854
-20.0954
-20.4099
-20.7294
-21.0543
-21.385
-21.7222
-22.0663
-22.4181
-22.7783
-23.1478
-23.5274
-23.9188
-24.3239
-24.7476
-25.2024
-25.7137
-26.3058
-27.0494
-28.8835
134.394
94.7678
65.1739
48.593
37.1765
28.7284
22.6884
18.2998
14.9627
12.3295
10.1922
8.4142
6.90337
5.59673
4.44994
3.43081
2.51537
1.68539
0.926724
0.228203
-0.419111
-1.02247
-1.58784
-2.12016
-2.62356
-3.10153
-3.55706
-3.99268
-4.41059
-4.8127
-5.20066
-5.57593
-5.93979
-6.29338
-6.6377
-6.97365
-7.30204
-7.62358
-7.93892
-8.24866
-8.55333
-8.85341
-9.14935
-9.44155
-9.73038
-10.0162
-10.2993
-10.58
-10.8586
-11.1353
-11.4104
-11.684
-11.9564
-12.2279
-12.4985
-12.7685
-13.0381
-13.3074
-13.5765
-13.8457
-14.1151
-14.3848
-14.6551
-14.926
-15.1976
-15.4702
-15.7439
-16.0189
-16.2952
-16.5732
-16.8528
-17.1343
-17.418
-17.7039
-17.9922
-18.2833
-18.5772
-18.8743
-19.1748
-19.479
-19.7872
-20.0998
-20.4172
-20.7397
-21.0679
-21.4023
-21.7436
-22.0925
-22.45
-22.817
-23.195
-23.5858
-23.9917
-24.4166
-24.8666
-25.3527
-25.8921
-26.5108
-27.3099
-28.6451
85.869
74.6366
59.9881
47.8456
38.2329
30.6064
24.7303
20.216
16.6737
13.8311
11.5041
9.56263
7.91355
6.4906
5.24576
4.14356
3.15727
2.26643
1.45512
0.710765
0.0232885
-0.615474
-1.21222
-1.77248
-2.30089
-2.80134
-3.27716
-3.73116
-4.16578
-4.58313
-4.98504
-5.37311
-5.74875
-6.11321
-6.46757
-6.81284
-7.14988
-7.47947
-7.80233
-8.11909
-8.43033
-8.73658
-9.03831
-9.33596
-9.62994
-9.92061
-10.2083
-10.4934
-10.7761
-11.0567
-11.3355
-11.6127
-11.8885
-12.1632
-12.4369
-12.7099
-12.9824
-13.2544
-13.5262
-13.798
-14.0698
-14.342
-14.6145
-14.8877
-15.1616
-15.4363
-15.7122
-15.9892
-16.2676
-16.5476
-16.8292
-17.1128
-17.3984
-17.6864
-17.9767
-18.2698
-18.5659
-18.8651
-19.1678
-19.4743
-19.7849
-20.1
-20.42
-20.7454
-21.0767
-21.4145
-21.7596
-22.1128
-22.4752
-22.8481
-23.2332
-23.6327
-24.0496
-24.4882
-24.9543
-25.4562
-26.0039
-26.6075
-27.2862
-28.0687
65.2348
61.5902
53.3673
44.6004
37.0197
30.6497
25.3995
21.1352
17.6622
14.8031
12.4205
10.4089
8.68773
7.19632
5.88877
4.73015
3.69353
2.75793
1.90682
1.12701
0.407895
-0.259197
-0.881383
-1.46457
-2.0137
-2.53295
-3.02586
-3.49546
-3.94435
-4.37479
-4.78873
-5.1879
-5.5738
-5.94775
-6.31093
-6.6644
-7.00907
-7.3458
-7.67533
-7.99834
-8.31544
-8.6272
-8.93412
-9.23667
-9.53526
-9.8303
-10.1221
-10.4111
-10.6975
-10.9817
-11.2638
-11.5442
-11.8231
-12.1008
-12.3773
-12.653
-12.928
-13.2025
-13.4767
-13.7507
-14.0248
-14.2991
-14.5737
-14.8489
-15.1247
-15.4014
-15.6791
-15.9579
-16.2381
-16.5198
-16.8032
-17.0885
-17.3758
-17.6653
-17.9574
-18.2521
-18.5498
-18.8508
-19.1552
-19.4634
-19.7757
-20.0926
-20.4144
-20.7417
-21.075
-21.4149
-21.7622
-22.1178
-22.4827
-22.8582
-23.2461
-23.6482
-24.067
-24.5057
-24.9674
-25.4554
-25.9705
-26.5063
-27.0436
-27.5387
52.5823
51.2528
46.5905
40.632
34.9377
29.8128
25.315
21.4639
18.2019
15.4372
13.0823
11.062
9.31369
7.78681
6.441
5.24429
4.17126
3.20164
2.31911
1.51051
0.765074
0.0739706
-0.57012
-1.17331
-1.74072
-2.27671
-2.78498
-3.26869
-3.73058
-4.173
-4.59804
-5.00747
-5.4029
-5.78571
-6.15714
-6.5183
-6.87017
-7.21363
-7.54946
-7.8784
-8.20107
-8.51807
-8.82994
-9.13715
-9.44015
-9.73936
-10.0352
-10.3279
-10.6179
-10.9054
-11.1908
-11.4742
-11.7561
-12.0365
-12.3157
-12.5939
-12.8713
-13.1482
-13.4246
-13.7009
-13.977
-14.2533
-14.5299
-14.8069
-15.0845
-15.363
-15.6423
-15.9228
-16.2046
-16.4878
-16.7727
-17.0594
-17.3482
-17.6391
-17.9325
-18.2286
-18.5276
-18.8298
-19.1354
-19.4448
-19.7583
-20.0763
-20.3992
-20.7275
-21.0616
-21.4023
-21.7502
-22.1062
-22.4711
-22.846
-23.2323
-23.6312
-24.0442
-24.4725
-24.9165
-25.3745
-25.8406
-26.3003
-26.7254
-27.0683
43.8834
43.4346
40.7664
36.7732
32.5583
28.5029
24.7442
21.3693
18.3978
15.8015
13.5363
11.5564
9.81875
8.28495
6.92239
5.70383
4.60672
3.61248
2.70579
1.87402
1.10668
0.395062
-0.268146
-0.88909
-1.47297
-2.02422
-2.54663
-3.04345
-3.5175
-3.97123
-4.40676
-4.82598
-5.23052
-5.62184
-6.00123
-6.36984
-6.72868
-7.07869
-7.42068
-7.7554
-8.08352
-8.40566
-8.72237
-9.03417
-9.34151
-9.64482
-9.9445
-10.2409
-10.5344
-10.8253
-11.1138
-11.4003
-11.685
-11.9681
-12.25
-12.5307
-12.8105
-13.0896
-13.3683
-13.6466
-13.9247
-14.2029
-14.4813
-14.7601
-15.0394
-15.3194
-15.6004
-15.8823
-16.1655
-16.4501
-16.7363
-17.0242
-17.3142
-17.6062
-17.9007
-18.1977
-18.4976
-18.8006
-19.107
-19.417
-19.731
-20.0494
-20.3725
-20.7008
-21.0347
-21.3748
-21.7216
-22.0759
-22.4382
-22.8094
-23.1901
-23.5809
-23.9821
-24.393
-24.8117
-25.2334
-25.6487
-26.0407
-26.3828
-26.6368
37.6996
37.5714
35.9559
33.2241
30.0996
26.9174
23.8276
20.9348
18.2941
15.9164
13.7899
11.8934
10.2016
8.68902
7.33175
6.10842
5.00042
3.99174
3.06877
2.21995
1.4355
0.70711
0.0277352
-0.608632
-1.20713
-1.77216
-2.30752
-2.8165
-3.30194
-3.76635
-4.2119
-4.64049
-5.05383
-5.4534
-5.84054
-6.21643
-6.58212
-6.93857
-7.28663
-7.62708
-7.9606
-8.28784
-8.60938
-8.92574
-9.2374
-9.5448
-9.84837
-10.1485
-10.4454
-10.7396
-11.0313
-11.3208
-11.6084
-11.8942
-12.1786
-12.4618
-12.744
-13.0253
-13.3061
-13.5864
-13.8665
-14.1465
-14.4267
-14.7071
-14.988
-15.2695
-15.5518
-15.8351
-16.1196
-16.4053
-16.6926
-16.9815
-17.2723
-17.5652
-17.8604
-18.1581
-18.4584
-18.7618
-19.0684
-19.3784
-19.6923
-20.0103
-20.3327
-20.6599
-20.9923
-21.3304
-21.6744
-22.025
-22.3823
-22.7469
-23.1187
-23.4976
-23.8827
-24.2721
-24.6622
-25.0466
-25.4148
-25.7509
-26.0327
-26.2327
33.0525
33.0234
31.975
30.052
27.7157
25.2207
22.7003
20.2543
17.9482
15.8127
13.8565
12.0757
10.4597
8.99416
7.66369
6.45313
5.34831
4.33643
3.40607
2.54724
1.75122
1.01045
0.318379
-0.33066
-0.941586
-1.51867
-2.06561
-2.58566
-3.08165
-3.55606
-4.01108
-4.44865
-4.87046
-5.27804
-5.67274
-6.05577
-6.42822
-6.79105
-7.14515
-7.4913
-7.83022
-8.16258
-8.48896
-8.8099
-9.12591
-9.43744
-9.74492
-10.0487
-10.3492
-10.6468
-10.9416
-11.2341
-11.5246
-11.8132
-12.1002
-12.3858
-12.6703
-12.9539
-13.2367
-13.519
-13.801
-14.0828
-14.3646
-14.6466
-14.9289
-15.2118
-15.4954
-15.7799
-16.0654
-16.3521
-16.6403
-16.93
-17.2214
-17.5148
-17.8103
-18.1082
-18.4087
-18.7119
-19.0181
-19.3276
-19.6406
-19.9574
-20.2782
-20.6033
-20.933
-21.2677
-21.6074
-21.9524
-22.3027
-22.6583
-23.0187
-23.3831
-23.7497
-24.1157
-24.4768
-24.8258
-25.1529
-25.4442
-25.6826
-25.8489
29.3878
29.384
28.6608
27.2662
25.4936
23.5259
21.471
19.4155
17.4227
15.5305
13.7582
12.113
10.5943
9.19684
7.91223
6.73105
5.64354
4.64021
3.71217
2.85126
2.05013
1.30221
0.601679
-0.0566208
-0.677229
-1.26415
-1.8209
-2.3506
-2.85599
-3.3395
-3.80328
-4.24925
-4.67909
-5.09435
-5.49636
-5.88635
-6.26541
-6.63454
-6.99461
-7.34644
-7.69076
-8.02824
-8.35949
-8.68506
-9.00546
-9.32116
-9.6326
-9.94017
-10.2443
-10.5452
-10.8433
-11.1389
-11.4322
-11.7235
-12.0131
-12.3012
-12.5881
-12.8738
-13.1588
-13.443
-13.7268
-14.0103
-14.2938
-14.5773
-14.861
-15.1451
-15.4299
-15.7154
-16.0018
-16.2893
-16.5781
-16.8683
-17.1601
-17.4537
-17.7492
-18.047
-18.347
-18.6496
-18.955
-19.2633
-19.5747
-19.8895
-20.2078
-20.5299
-20.8559
-21.1858
-21.5198
-21.8577
-22.1994
-22.5444
-22.8917
-23.2401
-23.5872
-23.9297
-24.263
-24.5803
-24.8726
-25.1288
-25.3357
-25.4804
26.4003
26.4006
25.8758
24.8336
23.4646
21.8972
20.215
18.4891
16.7756
15.1127
13.5237
12.022
10.6133
9.29838
8.07444
6.93672
5.87932
4.89587
3.97995
3.12533
2.32616
1.57703
0.872974
0.209522
-0.417369
-1.01132
-1.57557
-2.11302
-2.62626
-3.1176
-3.58911
-4.04264
-4.47985
-4.90223
-5.31113
-5.70774
-6.09316
-6.46838
-6.83429
-7.1917
-7.54135
-7.88392
-8.22002
-8.55021
-8.87502
-9.19493
-9.51036
-9.82174
-10.1294
-10.4338
-10.7352
-11.0338
-11.3301
-11.6242
-11.9164
-12.207
-12.4962
-12.7842
-13.0712
-13.3574
-13.643
-13.9282
-14.2132
-14.4981
-14.7831
-15.0684
-15.3542
-15.6406
-15.9277
-16.2158
-16.505
-16.7955
-17.0874
-17.3809
-17.6761
-17.9733
-18.2726
-18.5741
-18.8781
-19.1846
-19.4938
-19.8059
-20.121
-20.4391
-20.7603
-21.0846
-21.4117
-21.7415
-22.0734
-22.4066
-22.74
-23.0717
-23.3994
-23.7195
-24.0274
-24.3169
-24.5804
-24.809
-24.9931
-25.1235
23.9058
23.9048
23.508
22.7072
21.6302
20.3669
18.9805
17.5276
16.0558
14.6001
13.1845
11.8249
10.5306
9.30613
8.15262
7.06878
6.05183
5.09804
4.2032
3.36291
2.5728
1.82863
1.1264
0.462386
-0.166873
-0.764529
-1.33346
-1.87629
-2.39537
-2.89286
-3.37068
-3.8306
-4.2742
-4.7029
-5.118
-5.52069
-5.91202
-6.29298
-6.66443
-7.02719
-7.38199
-7.7295
-8.07035
-8.40509
-8.73426
-9.05832
-9.37774
-9.69291
-10.0042
-10.312
-10.6167
-10.9185
-11.2177
-11.5146
-11.8095
-12.1025
-12.3941
-12.6842
-12.9733
-13.2614
-13.5488
-13.8356
-14.1221
-14.4083
-14.6945
-14.9809
-15.2676
-15.5547
-15.8424
-16.1309
-16.4204
-16.7109
-17.0026
-17.2957
-17.5903
-17.8866
-18.1847
-18.4847
-18.7868
-19.091
-19.3975
-19.7062
-20.0174
-20.3308
-20.6465
-20.9642
-21.2837
-21.6045
-21.9259
-22.2469
-22.566
-22.8814
-23.1904
-23.4896
-23.7748
-24.0405
-24.2805
-24.4876
-24.6548
-24.7758
21.7843
21.7814
21.4715
20.841
19.9787
18.948
17.7958
16.5669
15.3006
14.0274
12.7703
11.5454
10.3638
9.23207
8.1539
7.13045
6.16124
5.24463
4.37826
3.5593
2.78473
2.05142
1.35631
0.696429
0.068945
-0.528788
-1.09924
-1.64469
-2.16725
-2.66883
-3.15122
-3.61602
-4.0647
-4.49862
-4.919
-5.32696
-5.72353
-6.10965
-6.48616
-6.85387
-7.21348
-7.56566
-7.91103
-8.25014
-8.5835
-8.91161
-9.2349
-9.55379
-9.86866
-10.1799
-10.4877
-10.7926
-11.0947
-11.3944
-11.6919
-11.9874
-12.2813
-12.5736
-12.8647
-13.1547
-13.4438
-13.7321
-14.02
-14.3075
-14.5949
-14.8822
-15.1696
-15.4573
-15.7455
-16.0342
-16.3237
-16.614
-16.9053
-17.1978
-17.4915
-17.7865
-18.0831
-18.3812
-18.6809
-18.9824
-19.2856
-19.5905
-19.8971
-20.2053
-20.5149
-20.8255
-21.1369
-21.4482
-21.7588
-22.0674
-22.3725
-22.6721
-22.9637
-23.2441
-23.5093
-23.7549
-23.9756
-24.166
-24.3208
-24.4355
19.9541
19.9499
19.7016
19.1947
18.4929
17.6416
16.6757
15.6301
14.5369
13.4222
12.3066
11.2058
10.1312
9.09041
8.08861
7.12855
6.21138
5.33703
4.50455
3.71244
2.9588
2.24149
1.5583
0.906975
0.2853
-0.308867
-0.877569
-1.42274
-1.94618
-2.44958
-2.93451
-3.40241
-3.85464
-4.29242
-4.71688
-5.12909
-5.53
-5.92049
-6.3014
-6.67346
-7.03739
-7.39381
-7.74332
-8.08646
-8.42376
-8.75567
-9.08264
-9.40507
-9.72334
-10.0378
-10.3488
-10.6566
-10.9616
-11.264
-11.564
-11.8619
-12.158
-12.4525
-12.7455
-13.0372
-13.328
-13.6178
-13.907
-14.1957
-14.484
-14.7722
-15.0602
-15.3484
-15.6368
-15.9256
-16.2149
-16.5049
-16.7955
-17.0871
-17.3795
-17.6731
-17.9677
-18.2636
-18.5606
-18.8589
-19.1584
-19.4591
-19.7608
-20.0633
-20.3664
-20.6696
-20.9725
-21.2742
-21.574
-21.8704
-22.1621
-22.4469
-22.7226
-22.9862
-23.2342
-23.4629
-23.668
-23.8453
-23.9908
-24.1015
18.357
18.3522
18.1491
17.7342
17.1546
16.4433
15.6264
14.731
13.7831
12.8047
11.814
10.8253
9.8498
8.89557
7.96836
7.07196
6.20859
5.3793
4.58422
3.82285
3.09421
2.397
1.72975
1.09084
0.478602
-0.108611
-0.672435
-1.21445
-1.73616
-2.23902
-2.72436
-3.19346
-3.6475
-4.08761
-4.51479
-4.93003
-5.33419
-5.72811
-6.11256
-6.48823
-6.8558
-7.21587
-7.56901
-7.91574
-8.25656
-8.59192
-8.92225
-9.24794
-9.56937
-9.88688
-10.2008
-10.5114
-10.8191
-11.124
-11.4264
-11.7266
-12.0248
-12.3212
-12.6161
-12.9095
-13.2018
-13.493
-13.7834
-14.0732
-14.3623
-14.6512
-14.9397
-15.2282
-15.5167
-15.8054
-16.0943
-16.3837
-16.6735
-16.9638
-17.2549
-17.5466
-17.8391
-18.1324
-18.4265
-18.7213
-19.0168
-19.3129
-19.6093
-19.9059
-20.2022
-20.4979
-20.7922
-21.0845
-21.3736
-21.6585
-21.9375
-22.2087
-22.47
-22.7188
-22.9521
-23.1666
-23.3591
-23.5262
-23.665
-23.7731
16.9503
16.9453
16.7765
16.4315
15.9465
15.3458
14.6488
13.8769
13.0509
12.1894
11.3079
10.4194
9.53438
8.66078
7.80462
6.97023
6.16049
5.37722
4.62134
3.89309
3.19222
2.51812
1.86989
1.24649
0.646742
0.0694176
-0.486736
-1.02297
-1.5405
-2.04052
-2.52417
-2.99253
-3.44663
-3.88745
-4.31589
-4.73282
-5.13904
-5.5353
-5.92231
-6.30072
-6.67114
-7.03414
-7.39026
-7.74
-8.08383
-8.42217
-8.75544
-9.08402
-9.40827
-9.72852
-10.0451
-10.3583
-10.6683
-10.9756
-11.2802
-11.5825
-11.8827
-12.1809
-12.4774
-12.7724
-13.066
-13.3585
-13.65
-13.9406
-14.2305
-14.5198
-14.8087
-15.0973
-15.3858
-15.6741
-15.9625
-16.251
-16.5398
-16.8288
-17.1181
-17.4078
-17.6979
-17.9884
-18.2793
-18.5704
-18.8617
-19.1529
-19.444
-19.7345
-20.024
-20.3121
-20.598
-20.881
-21.1601
-21.4339
-21.7012
-21.9601
-22.2086
-22.4445
-22.6651
-22.868
-23.0503
-23.2094
-23.3432
-23.4499
15.7016
15.6966
15.5544
15.2638
14.853
14.3405
13.741
13.0711
12.3477
11.5861
10.7998
10.0003
9.19693
8.39746
7.60783
6.83257
6.07498
5.33733
4.6211
3.92709
3.25561
2.60655
1.97953
1.37395
0.78906
0.223999
-0.322147
-0.850327
-1.3615
-1.85662
-2.33663
-2.80242
-3.25487
-3.69481
-4.12304
-4.54032
-4.94734
-5.3448
-5.73331
-6.11349
-6.48588
-6.85102
-7.20939
-7.56147
-7.90769
-8.24846
-8.58417
-8.91517
-9.24181
-9.56441
-9.88326
-10.1987
-10.5109
-10.8202
-11.1268
-11.4309
-11.7328
-12.0326
-12.3306
-12.6269
-12.9217
-13.2152
-13.5076
-13.7989
-14.0893
-14.379
-14.6681
-14.9567
-15.2448
-15.5327
-15.8204
-16.1079
-16.3954
-16.6828
-16.9703
-17.2578
-17.5453
-17.8328
-18.1202
-18.4074
-18.6943
-18.9807
-19.2662
-19.5506
-19.8334
-20.114
-20.3918
-20.6659
-20.9354
-21.1992
-21.4557
-21.7034
-21.9407
-22.1653
-22.3753
-22.5684
-22.7425
-22.8955
-23.0256
-23.1319
14.5859
14.5811
14.4599
14.2121
13.8605
13.4193
12.8996
12.3144
11.6775
11.0016
10.2981
9.57707
8.84703
8.1151
7.38703
6.66735
5.95955
5.26618
4.58909
3.92946
3.28802
2.66506
2.06061
1.47443
0.906104
0.355105
-0.179195
-0.697484
-1.20048
-1.68894
-2.16359
-2.62517
-3.0744
-3.51199
-3.93862
-4.35493
-4.76154
-5.15904
-5.54801
-5.92896
-6.30241
-6.66883
-7.02867
-7.38237
-7.73031
-8.07289
-8.41046
-8.74336
-9.0719
-9.3964
-9.71713
-10.0344
-10.3484
-10.6594
-10.9676
-11.2733
-11.5766
-11.8778
-12.177
-12.4744
-12.7702
-13.0645
-13.3575
-13.6493
-13.9401
-14.23
-14.519
-14.8073
-15.0951
-15.3823
-15.669
-15.9554
-16.2414
-16.5271
-16.8125
-17.0976
-17.3824
-17.6667
-17.9506
-18.2339
-18.5163
-18.7977
-19.0778
-19.3561
-19.6323
-19.9057
-20.1757
-20.4414
-20.702
-20.9564
-21.2032
-21.441
-21.6683
-21.8833
-22.0843
-22.2694
-22.4368
-22.585
-22.7127
-22.8189
13.5834
13.579
13.4745
13.2611
12.9573
12.5742
12.1203
11.606
11.0423
10.4399
9.80841
9.15659
8.49206
7.82131
7.14975
6.48179
5.82094
5.16992
4.53076
3.90495
3.29349
2.69701
2.1158
1.54994
0.999311
0.463633
-0.0574708
-0.56446
-1.05785
-1.53819
-2.00606
-2.46203
-2.90669
-3.34062
-3.76438
-4.17853
-4.58358
-4.98005
-5.36844
-5.74921
-6.12281
-6.48967
-6.85019
-7.20475
-7.55373
-7.89747
-8.23629
-8.57052
-8.90045
-9.22635
-9.54849
-9.86713
-10.1825
-10.4948
-10.8043
-11.1112
-11.4157
-11.7179
-12.0181
-12.3163
-12.6128
-12.9077
-13.2012
-13.4933
-13.7842
-14.074
-14.3628
-14.6507
-14.9378
-15.2241
-15.5098
-15.7948
-16.0792
-16.363
-16.6462
-16.9288
-17.2107
-17.4918
-17.772
-18.0513
-18.3292
-18.6057
-18.8803
-19.1528
-19.4225
-19.6891
-19.9517
-20.2096
-20.462
-20.7078
-20.9458
-21.1748
-21.3935
-21.6002
-21.7936
-21.972
-22.1342
-22.2787
-22.4047
-22.5114
12.6784
12.6743
12.5835
12.398
12.1333
11.798
11.3988
10.944
10.4426
9.90341
9.33462
8.7438
8.13767
7.52212
6.90215
6.28198
5.66502
5.05404
4.4512
3.85816
3.27611
2.70591
2.14811
1.60299
1.07068
0.551118
0.044128
-0.450553
-0.93326
-1.40438
-1.86433
-2.31356
-2.75252
-3.18168
-3.60149
-4.01241
-4.41489
-4.80935
-5.19623
-5.57592
-5.94882
-6.3153
-6.67573
-7.03044
-7.37976
-7.72401
-8.06349
-8.39847
-8.72923
-9.05602
-9.3791
-9.69869
-10.015
-10.3283
-10.6387
-10.9464
-11.2517
-11.5547
-11.8554
-12.1542
-12.4512
-12.7464
-13.04
-13.3322
-13.623
-13.9125
-14.2009
-14.4882
-14.7744
-15.0597
-15.3441
-15.6276
-15.9102
-16.192
-16.4728
-16.7528
-17.0317
-17.3095
-17.5861
-17.8613
-18.1348
-18.4064
-18.6758
-18.9425
-19.2061
-19.4661
-19.7218
-19.9725
-20.2173
-20.4554
-20.6856
-20.9068
-21.1179
-21.3175
-21.5045
-21.6775
-21.8354
-21.9772
-22.1021
-22.2096
11.8581
11.8544
11.7748
11.6122
11.3796
11.0841
10.7308
10.3263
9.87805
9.39339
8.87927
8.34219
7.78808
7.22222
6.64919
6.07293
5.49674
4.92335
4.35496
3.7933
3.23974
2.69527
2.16062
1.63628
1.12252
0.619475
0.127149
-0.354563
-0.825843
-1.28693
-1.73812
-2.17972
-2.61208
-3.03556
-3.45053
-3.85734
-4.25636
-4.64797
-5.0325
-5.41032
-5.78175
-6.14711
-6.50673
-6.86091
-7.20993
-7.55407
-7.8936
-8.22878
-8.55984
-8.88703
-9.21056
-9.53064
-9.84748
-10.1613
-10.4722
-10.7804
-11.0861
-11.3895
-11.6906
-11.9896
-12.2867
-12.582
-12.8756
-13.1675
-13.458
-13.747
-14.0347
-14.3212
-14.6064
-14.8905
-15.1734
-15.4552
-15.7359
-16.0155
-16.294
-16.5712
-16.8471
-17.1216
-17.3945
-17.6656
-17.9347
-18.2016
-18.4659
-18.7272
-18.985
-19.2388
-19.4881
-19.732
-19.97
-20.201
-20.4242
-20.6386
-20.8431
-21.0367
-21.2182
-21.3867
-21.5412
-21.681
-21.8053
-21.9138
11.112
11.1085
11.0383
10.8947
10.6889
10.4267
10.112
9.75034
9.34771
8.91026
8.44389
7.95421
7.44642
6.92521
6.39478
5.85875
5.32026
4.78194
4.24598
3.71416
3.18792
2.66836
2.15634
1.65248
1.1572
0.670792
0.193382
-0.274989
-0.734373
-1.18489
-1.6267
-2.06003
-2.48512
-2.90222
-3.31161
-3.71359
-4.10845
-4.49648
-4.87797
-5.25321
-5.6225
-5.98609
-6.34427
-6.69729
-7.04541
-7.38887
-7.72791
-8.06276
-8.39362
-8.72071
-9.04423
-9.36437
-9.68131
-9.99523
-10.3063
-10.6146
-10.9205
-11.2239
-11.525
-11.824
-12.1209
-12.416
-12.7092
-13.0007
-13.2906
-13.5789
-13.8657
-14.1511
-14.4352
-14.7178
-14.9992
-15.2792
-15.5579
-15.8352
-16.1111
-16.3855
-16.6584
-16.9295
-17.1987
-17.4659
-17.7308
-17.993
-18.2524
-18.5085
-18.7608
-19.0089
-19.2522
-19.49
-19.7216
-19.9464
-20.1633
-20.3717
-20.5705
-20.7589
-20.9359
-21.1007
-21.2525
-21.3907
-21.5148
-21.6245
10.4314
10.4282
10.3657
10.238
10.0548
9.82064
9.53882
9.2137
8.85034
8.45388
8.02931
7.58148
7.11494
6.63385
6.14201
5.64274
5.13899
4.63325
4.12768
3.62404
3.12381
2.62817
2.13805
1.65417
1.17709
0.707184
0.244711
-0.210179
-0.657426
-1.09704
-1.52909
-1.9537
-2.37102
-2.78121
-3.1845
-3.58109
-3.9712
-4.35507
-4.73294
-5.10504
-5.4716
-5.83287
-6.18905
-6.54038
-6.88708
-7.22936
-7.56741
-7.90144
-8.23164
-8.5582
-8.88128
-9.20106
-9.5177
-9.83136
-10.1422
-10.4503
-10.7559
-11.059
-11.3599
-11.6585
-11.955
-12.2496
-12.5422
-12.833
-13.1221
-13.4095
-13.6953
-13.9795
-14.2621
-14.5433
-14.8229
-15.101
-15.3775
-15.6525
-15.9258
-16.1973
-16.4671
-16.7348
-17.0005
-17.2638
-17.5245
-17.7823
-18.037
-18.2881
-18.5353
-18.778
-19.0157
-19.2479
-19.4739
-19.6929
-19.9044
-20.1074
-20.3013
-20.4852
-20.6584
-20.8202
-20.9699
-21.107
-21.2311
-21.342
9.80889
9.80598
9.75005
9.63581
9.47159
9.26134
9.00757
8.71388
8.3845
8.02373
7.63586
7.22504
6.79525
6.3502
5.89328
5.42755
4.95572
4.48017
4.00294
3.5258
3.0502
2.57736
2.10828
1.64375
1.1844
0.730696
0.283001
-0.158448
-0.593496
-1.02207
-1.44414
-1.85975
-2.26897
-2.6719
-3.06868
-3.45945
-3.84439
-4.22365
-4.59744
-4.96592
-5.3293
-5.68776
-6.04149
-6.39068
-6.7355
-7.07615
-7.41278
-7.74558
-8.07471
-8.40033
-8.72258
-9.04163
-9.35761
-9.67067
-9.98092
-10.2885
-10.5935
-10.8961
-11.1964
-11.4944
-11.7902
-12.084
-12.3759
-12.6658
-12.9538
-13.2401
-13.5246
-13.8074
-14.0885
-14.368
-14.6457
-14.9218
-15.1961
-15.4686
-15.7392
-16.008
-16.2746
-16.5391
-16.8011
-17.0606
-17.3173
-17.5709
-17.8211
-18.0676
-18.3099
-18.5476
-18.7802
-19.0072
-19.2281
-19.442
-19.6486
-19.847
-20.0365
-20.2166
-20.3866
-20.5458
-20.6938
-20.8302
-20.9545
-21.0667
9.23848
9.2358
9.18546
9.08263
8.93463
8.74479
8.5151
8.24855
7.94867
7.61911
7.2635
6.88546
6.48846
6.07578
5.65045
5.21527
4.77273
4.32506
3.87421
3.42187
2.96948
2.51829
2.0693
1.62336
1.18117
0.74325
0.310039
-0.118147
-0.541078
-0.958599
-1.37062
-1.77709
-2.17803
-2.57346
-2.96347
-3.34813
-3.72756
-4.10189
-4.47123
-4.83574
-5.19557
-5.55085
-5.90175
-6.24841
-6.59099
-6.92963
-7.26448
-7.59568
-7.92338
-8.24771
-8.56881
-8.88679
-9.20179
-9.51393
-9.82331
-10.13
-10.4342
-10.736
-11.0354
-11.3325
-11.6275
-11.9203
-12.2111
-12.4999
-12.7868
-13.0717
-13.3548
-13.6361
-13.9155
-14.1931
-14.4689
-14.7428
-15.0148
-15.2848
-15.5528
-15.8187
-16.0822
-16.3434
-16.602
-16.8578
-17.1106
-17.3602
-17.6061
-17.8482
-18.086
-18.319
-18.547
-18.7693
-18.9854
-19.1948
-19.397
-19.5913
-19.7771
-19.9539
-20.1211
-20.2783
-20.4249
-20.5607
-20.6855
-20.799
8.71489
8.71243
8.66687
8.5738
8.43971
8.26741
8.05852
7.8155
7.54133
7.23912
6.91198
6.56302
6.1953
5.8117
5.41495
5.00758
4.59187
4.16991
3.74352
3.31433
2.88376
2.45301
2.02312
1.59496
1.16926
0.746609
0.32749
-0.0877183
-0.498721
-0.9053
-1.3073
-1.70461
-2.09719
-2.48501
-2.86808
-3.24644
-3.62015
-3.98929
-4.35394
-4.71421
-5.07019
-5.42201
-5.76978
-6.11361
-6.45364
-6.78997
-7.12273
-7.45204
-7.77801
-8.10076
-8.4204
-8.73704
-9.05078
-9.36173
-9.66997
-9.97561
-10.2787
-10.5794
-10.8777
-11.1738
-11.4676
-11.7593
-12.0488
-12.3363
-12.6218
-12.9053
-13.1868
-13.4664
-13.7441
-14.0197
-14.2934
-14.5651
-14.8348
-15.1023
-15.3676
-15.6305
-15.8911
-16.149
-16.4042
-16.6565
-16.9056
-17.1512
-17.3932
-17.6311
-17.8646
-18.0934
-18.317
-18.535
-18.7469
-18.9522
-19.1505
-19.3411
-19.5236
-19.6976
-19.8625
-20.0179
-20.1635
-20.299
-20.4242
-20.5389
8.23368
8.2314
8.18996
8.10529
7.98318
7.82605
7.63519
7.41266
7.161
6.88283
6.58085
6.25775
5.91619
5.55874
5.18784
4.80577
4.41462
4.01632
3.61258
3.20496
2.7948
2.38331
1.9715
1.56026
1.15034
0.742377
0.336883
-0.0657105
-0.465059
-0.86089
-1.25299
-1.64122
-2.02544
-2.40561
-2.78168
-3.15364
-3.5215
-3.88529
-4.24507
-4.6009
-4.95284
-5.30097
-5.64538
-5.98615
-6.32338
-6.65717
-6.98759
-7.31476
-7.63876
-7.95969
-8.27763
-8.59269
-8.90493
-9.21446
-9.52134
-9.82566
-10.1275
-10.4269
-10.7239
-11.0187
-11.3112
-11.6015
-11.8897
-12.1757
-12.4597
-12.7416
-13.0214
-13.2992
-13.575
-13.8486
-14.1202
-14.3896
-14.6569
-14.9218
-15.1844
-15.4445
-15.7021
-15.9569
-16.2088
-16.4576
-16.7032
-16.9451
-17.1833
-17.4173
-17.6469
-17.8716
-18.0913
-18.3053
-18.5134
-18.715
-18.9097
-19.0971
-19.2768
-19.4483
-19.6112
-19.7651
-19.9099
-20.0452
-20.1708
-20.2868
7.79101
7.7889
7.75101
7.67361
7.56188
7.41792
7.24277
7.03816
6.80624
6.54928
6.26958
5.96949
5.65135
5.31743
4.96991
4.61085
4.24216
3.86561
3.48281
3.09522
2.70414
2.31072
1.91597
1.52078
1.1259
0.731993
0.339606
-0.0507953
-0.438826
-0.824172
-1.20658
-1.58584
-1.96181
-2.33437
-2.70343
-3.06895
-3.4309
-3.78927
-4.14407
-4.49533
-4.84308
-5.18737
-5.52826
-5.86579
-6.20005
-6.5311
-6.859
-7.18383
-7.50566
-7.82457
-8.14062
-8.4539
-8.76445
-9.07237
-9.3777
-9.68052
-9.98088
-10.2788
-10.5744
-10.8677
-11.1588
-11.4476
-11.7342
-12.0187
-12.301
-12.5812
-12.8593
-13.1352
-13.4089
-13.6805
-13.9499
-14.217
-14.4818
-14.7442
-15.0042
-15.2615
-15.5161
-15.7678
-16.0166
-16.2621
-16.5042
-16.7426
-16.9772
-17.2075
-17.4334
-17.6545
-17.8704
-18.0809
-18.2854
-18.4837
-18.6753
-18.8599
-19.037
-19.2063
-19.3675
-19.5202
-19.6643
-19.7995
-19.9256
-20.0428
7.38356
7.3816
7.34681
7.27571
7.17302
7.04054
6.87913
6.69023
6.4757
6.23748
5.97756
5.698
5.40085
5.08812
4.76175
4.42361
4.07544
3.71887
3.35539
2.98638
2.61307
2.23657
1.85787
1.47784
1.09724
0.716742
0.336908
-0.0417661
-0.418865
-0.794037
-1.16699
-1.53749
-1.90534
-2.27039
-2.63251
-2.99162
-3.34766
-3.70057
-4.05034
-4.39696
-4.74044
-5.08079
-5.41804
-5.75222
-6.08338
-6.41155
-6.73678
-7.05912
-7.37864
-7.69537
-8.00938
-8.32072
-8.62943
-8.93558
-9.23922
-9.54039
-9.83913
-10.1355
-10.4295
-10.7212
-11.0107
-11.2979
-11.5829
-11.8656
-12.1462
-12.4246
-12.7008
-12.9747
-13.2465
-13.5159
-13.7831
-14.0479
-14.3103
-14.5701
-14.8274
-15.082
-15.3337
-15.5825
-15.8281
-16.0705
-16.3093
-16.5444
-16.7756
-17.0025
-17.2249
-17.4426
-17.6551
-17.8623
-18.0636
-18.2588
-18.4476
-18.6296
-18.8045
-18.9719
-19.1316
-19.2833
-19.4268
-19.5619
-19.6886
-19.8068
7.00845
7.00663
6.97453
6.90894
6.81415
6.69172
6.54236
6.3673
6.16812
5.9465
5.70418
5.44295
5.16462
4.87097
4.56375
4.24463
3.9152
3.57695
3.23129
2.87948
2.5227
2.16201
1.79837
1.43262
1.06553
0.697766
0.329907
-0.0375351
-0.404121
-0.769474
-1.13327
-1.49525
-1.85517
-2.21285
-2.56814
-2.92092
-3.27108
-3.61856
-3.9633
-4.30527
-4.64443
-4.98079
-5.31433
-5.64508
-5.97304
-6.29824
-6.6207
-6.94045
-7.25753
-7.57198
-7.88382
-8.1931
-8.49986
-8.80413
-9.10594
-9.40534
-9.70235
-9.99701
-10.2893
-10.5794
-10.8671
-11.1526
-11.4359
-11.7169
-11.9956
-12.2721
-12.5464
-12.8183
-13.088
-13.3553
-13.6202
-13.8827
-14.1427
-14.4
-14.6547
-14.9066
-15.1555
-15.4014
-15.6441
-15.8834
-16.1191
-16.351
-16.579
-16.8027
-17.0219
-17.2364
-17.4458
-17.6498
-17.8483
-18.0407
-18.227
-18.4066
-18.5795
-18.7452
-18.9036
-19.0544
-19.1974
-19.3326
-19.4598
-19.579
6.66317
6.66147
6.63173
6.57097
6.4831
6.36951
6.23075
6.0679
5.8823
5.67543
5.44879
5.20395
4.94252
4.66607
4.37618
4.07434
3.76202
3.44058
3.1113
2.7754
2.43396
2.08801
1.73845
1.38613
1.03178
0.676077
0.319601
-0.0371252
-0.393645
-0.74956
-1.10453
-1.45825
-1.81047
-2.16098
-2.50958
-2.85614
-3.20052
-3.54263
-3.88238
-4.2197
-4.55455
-4.8869
-5.21671
-5.54398
-5.8687
-6.19086
-6.51048
-6.82757
-7.14215
-7.45422
-7.76381
-8.07095
-8.37565
-8.67795
-8.97785
-9.27539
-9.57059
-9.86346
-10.154
-10.4423
-10.7283
-11.012
-11.2934
-11.5726
-11.8494
-12.124
-12.3963
-12.6662
-12.9338
-13.1989
-13.4616
-13.7218
-13.9793
-14.2342
-14.4863
-14.7356
-14.9818
-15.2249
-15.4647
-15.7011
-15.9339
-16.1628
-16.3877
-16.6084
-16.8246
-17.0361
-17.2426
-17.4439
-17.6396
-17.8296
-18.0135
-18.1911
-18.3621
-18.5263
-18.6835
-18.8335
-18.9762
-19.1114
-19.2391
-19.3592
6.34552
6.34392
6.31626
6.25974
6.17796
6.07215
5.94276
5.7907
5.61715
5.4234
5.21075
4.98059
4.73434
4.47341
4.1992
3.91307
3.61635
3.3103
2.99609
2.67487
2.34765
2.0154
1.679
1.33925
0.996892
0.65257
0.306876
-0.0396626
-0.38658
-0.733463
-1.07995
-1.42572
-1.7705
-2.11404
-2.45615
-2.79664
-3.13536
-3.47218
-3.80701
-4.13975
-4.47032
-4.79867
-5.12475
-5.44854
-5.76999
-6.0891
-6.40584
-6.72022
-7.03224
-7.34188
-7.64917
-7.95411
-8.25669
-8.55695
-8.85488
-9.15049
-9.44381
-9.73482
-10.0235
-10.31
-10.5941
-10.876
-11.1556
-11.4329
-11.7078
-11.9805
-12.2507
-12.5186
-12.7841
-13.0471
-13.3075
-13.5654
-13.8206
-14.073
-14.3227
-14.5693
-14.8129
-15.0533
-15.2904
-15.524
-15.7539
-15.98
-16.2021
-16.4199
-16.6333
-16.8421
-17.0459
-17.2445
-17.4378
-17.6255
-17.8073
-17.983
-18.1524
-18.3152
-18.4714
-18.6207
-18.763
-18.8983
-19.0264
-19.1474
6.05356
6.05206
6.02623
5.97345
5.89703
5.79809
5.67699
5.5345
5.37166
5.18959
4.98944
4.77244
4.53984
4.2929
4.03289
3.76103
3.47854
3.18656
2.8862
2.57849
2.26442
1.94489
1.62075
1.29276
0.961642
0.628034
0.292521
-0.0443672
-0.382159
-0.720431
-1.05881
-1.39695
-1.73456
-2.07139
-2.4072
-2.7418
-3.07501
-3.40668
-3.73668
-4.06491
-4.39126
-4.71567
-5.03805
-5.35837
-5.67657
-5.99261
-6.30647
-6.61813
-6.92756
-7.23475
-7.53969
-7.84239
-8.14282
-8.44099
-8.7369
-9.03055
-9.32193
-9.61105
-9.8979
-10.1825
-10.4648
-10.7448
-11.0225
-11.2978
-11.5709
-11.8415
-12.1098
-12.3756
-12.639
-12.8998
-13.1581
-13.4137
-13.6666
-13.9166
-14.1638
-14.408
-14.649
-14.8869
-15.1213
-15.3522
-15.5795
-15.8029
-16.0223
-16.2374
-16.4482
-16.6543
-16.8556
-17.0519
-17.2429
-17.4285
-17.6083
-17.7823
-17.9502
-18.1118
-18.267
-18.4157
-18.5578
-18.6931
-18.8216
-18.9434
5.7856
5.78418
5.75997
5.71049
5.63882
5.54596
5.4322
5.29821
5.1449
4.97325
4.78428
4.57908
4.35875
4.12444
3.87727
3.61837
3.34883
3.06972
2.78205
2.48679
2.18485
1.87711
1.56435
1.24732
0.926719
0.603163
0.277233
-0.0505445
-0.379695
-0.709787
-1.04044
-1.37129
-1.70204
-2.03242
-2.36216
-2.69107
-3.01893
-3.34559
-3.6709
-3.99472
-4.31694
-4.63747
-4.95622
-5.27311
-5.58808
-5.90108
-6.21207
-6.521
-6.82784
-7.13257
-7.43516
-7.7356
-8.03385
-8.32992
-8.62379
-8.91545
-9.20487
-9.49207
-9.77701
-10.0597
-10.3401
-10.6182
-10.894
-11.1675
-11.4386
-11.7072
-11.9735
-12.2373
-12.4986
-12.7573
-13.0134
-13.2668
-13.5174
-13.7651
-14.0099
-14.2517
-14.4903
-14.7256
-14.9575
-15.1859
-15.4106
-15.6315
-15.8483
-16.061
-16.2692
-16.473
-16.6719
-16.866
-17.0549
-17.2385
-17.4166
-17.5889
-17.7555
-17.916
-18.0704
-18.2185
-18.3602
-18.4956
-18.6245
-18.7469
5.54012
5.53878
5.516
5.46944
5.40197
5.3145
5.20726
5.08082
4.936
4.77366
4.59469
4.40007
4.19078
3.96786
3.73231
3.48516
3.22742
2.96005
2.684
2.40017
2.10941
1.81256
1.51035
1.20352
0.892721
0.578568
0.261629
-0.0575771
-0.378573
-0.700927
-1.02424
-1.34817
-1.67237
-1.99657
-2.3205
-2.64393
-2.96664
-3.28846
-3.60921
-3.92875
-4.24695
-4.56369
-4.87887
-5.1924
-5.5042
-5.8142
-6.12234
-6.42857
-6.73285
-7.03512
-7.33536
-7.63354
-7.92961
-8.22357
-8.51539
-8.80504
-9.0925