/*--------------------------------*- C++ -*----------------------------------*\
| =========                 |                                                 |
| \\      /  F ield         | OpenFOAM: The Open Source CFD Toolbox           |
|  \\    /   O peration     | Version:  2406                                  |
|   \\  /    A nd           | Website:  www.openfoam.com                      |
|    \\/     M anipulation  |                                                 |
\*---------------------------------------------------------------------------*/
FoamFile
{
    version     2.0;
    format      ascii;
    arch        "LSB;label=32;scalar=64";
    class       surfaceScalarField;
    location    "550";
    object      phi;
}
// * * * * * * * * * * * * * * * * * * * * * * * * * * * * * * * * * * * * * //

dimensions      [0 3 -1 0 0 0 0];

oriented        oriented;

internalField   nonuniform List<scalar> 
299000
(
0.0796643
0.0203357
0.0586791
0.0209852
0.0442546
0.0144245
0.0348018
0.00945282
0.0284998
0.00630201
0.0241894
0.00431034
0.0211376
0.00305177
0.0188881
0.00224958
0.017164
0.00172403
0.0157977
0.00136628
0.0146848
0.00111293
0.0137579
0.00092693
0.0129719
0.000785987
0.0122956
0.000676264
0.0117067
0.000588885
0.0111888
0.000517964
0.0107293
0.000459475
0.0103187
0.000410578
0.00994951
0.000369219
0.00961563
0.000333878
0.00931223
0.000303407
0.0090353
0.000276925
0.00878156
0.000253745
0.00854823
0.000233325
0.008333
0.000215231
0.00813389
0.000199113
0.0079492
0.000184684
0.00777749
0.00017171
0.0076175
0.000159995
0.00746812
0.000149377
0.0073284
0.000139719
0.0071975
0.000130904
0.00707466
0.000122834
0.00695924
0.000115424
0.00685064
0.000108601
0.00674834
0.000102302
0.00665186
9.64733e-05
0.0065608
9.10663e-05
0.00647476
8.60393e-05
0.0063934
8.13556e-05
0.00631642
7.69827e-05
0.00624353
7.28918e-05
0.00617447
6.90573e-05
0.00610901
6.54564e-05
0.00604694
6.20686e-05
0.00598807
5.88756e-05
0.00593221
5.58608e-05
0.0058792
5.30093e-05
0.00582889
5.03075e-05
0.00578115
4.77431e-05
0.00573584
4.53049e-05
0.00569286
4.29826e-05
0.00565209
4.07667e-05
0.00561345
3.86485e-05
0.00557683
3.66199e-05
0.00554215
3.46736e-05
0.00550935
3.28024e-05
0.00547835
3.09999e-05
0.00544909
2.92599e-05
0.00542151
2.75766e-05
0.00539557
2.59444e-05
0.00537121
2.43581e-05
0.0053484
2.28124e-05
0.00532709
2.13025e-05
0.00530727
1.98234e-05
0.0052889
1.83703e-05
0.00527196
1.69383e-05
0.00525644
1.55225e-05
0.00524232
1.4118e-05
0.0052296
1.27196e-05
0.00521828
1.13219e-05
0.00520836
9.91902e-06
0.00519986
8.50491e-06
0.00519278
7.07281e-06
0.00518717
5.61531e-06
0.00518304
4.12409e-06
0.00518045
2.58978e-06
0.00517945
1.00159e-06
0.0051801
-6.52997e-07
0.00518249
-2.3888e-06
0.00518672
-4.22346e-06
0.00519289
-6.17833e-06
0.00520117
-8.27967e-06
0.00521173
-1.05604e-05
0.0052248
-1.30624e-05
0.00524064
-1.58412e-05
0.00525961
-1.89716e-05
0.00528217
-2.25607e-05
0.00530894
-2.67688e-05
0.00534079
-3.18516e-05
0.00537903
-3.82444e-05
0.00542577
-4.67331e-05
0.00548457
-5.88077e-05
0.00556199
-7.74133e-05
0.00567059
-0.000108606
0.00583573
-0.000165142
0.00610908
-0.000273351
0.00659751
-0.000488426
0.00756669
-0.000969181
-0.0022938
0.00986049
0.105208
0.0151279
0.100188
0.0260051
0.0901926
0.0244199
0.0797501
0.0198954
0.0705676
0.0154845
0.0629857
0.0118922
0.0568431
0.00919434
0.0518626
0.00723014
0.0477859
0.00580073
0.0444055
0.00474671
0.0415635
0.00395491
0.0391426
0.00334783
0.0370556
0.00287293
0.0352375
0.00249443
0.0336387
0.00218768
0.0322213
0.00193535
0.0309557
0.00172504
0.0298186
0.00154773
0.0287911
0.0013967
0.0278581
0.00126688
0.0270071
0.00115439
0.0262278
0.00105619
0.0255117
0.000969899
0.0248514
0.000893622
0.0242408
0.000825824
0.0236746
0.00076526
0.0231484
0.000710908
0.0226582
0.000661922
0.0222006
0.000617598
0.0217726
0.000577346
0.0213717
0.000540665
0.0209955
0.000507132
0.0206419
0.000476384
0.0203092
0.000448111
0.0199958
0.000422044
0.0197001
0.00039795
0.019421
0.000375627
0.0191571
0.000354897
0.0189076
0.000335604
0.0186713
0.000317611
0.0184475
0.000300798
0.0182353
0.000285056
0.0180341
0.000270289
0.0178432
0.000256412
0.0176619
0.000243348
0.0174897
0.000231027
0.0173262
0.000219388
0.0171708
0.000208373
0.0170232
0.000197933
0.0168829
0.000188019
0.0167496
0.000178591
0.016623
0.000169608
0.0165027
0.000161035
0.0163886
0.000152839
0.0162802
0.000144989
0.0161774
0.000137457
0.01608
0.000130216
0.0159878
0.000123242
0.0159005
0.000116512
0.0158181
0.000110003
0.0157403
0.000103693
0.0156671
9.75645e-05
0.0155983
9.15961e-05
0.0155339
8.57696e-05
0.0154736
8.00665e-05
0.0154175
7.44685e-05
0.0153655
6.89574e-05
0.0153175
6.35149e-05
0.0152735
5.81223e-05
0.0152335
5.27603e-05
0.0151974
4.74087e-05
0.0151653
4.20462e-05
0.0151371
3.665e-05
0.015113
3.11952e-05
0.0150929
2.56545e-05
0.0150771
1.99974e-05
0.0150655
1.41895e-05
0.0150583
8.19129e-06
0.0150557
1.95687e-06
0.0150578
-4.56773e-06
0.0150651
-1.14471e-05
0.0150777
-1.87594e-05
0.015096
-2.66012e-05
0.0151205
-3.50935e-05
0.0151518
-4.43918e-05
0.0151907
-5.47004e-05
0.015238
-6.62965e-05
0.015295
-7.95696e-05
0.0153633
-9.50902e-05
0.0154452
-0.000113732
0.0155439
-0.000136895
0.0156641
-0.000166919
0.0158131
-0.000207863
0.0160027
-0.000266969
0.0162515
-0.000357449
0.0165899
-0.000503492
0.0170652
-0.000748693
0.0177491
-0.00117235
0.0187065
-0.00192654
-0.00323423
0.0196469
0.105142
0.00998556
0.10894
0.0222074
0.107707
0.0256526
0.103024
0.0245791
0.0967857
0.0217224
0.0902293
0.0184486
0.0840036
0.01542
0.0783708
0.0128629
0.0733862
0.0107854
0.0690122
0.00912064
0.0651785
0.00778869
0.061809
0.00671733
0.0588339
0.00584796
0.0561932
0.0051352
0.0538362
0.00454465
0.0517213
0.00405027
0.049814
0.00363238
0.0480857
0.00327594
0.046513
0.0029694
0.0450762
0.00270375
0.0437586
0.00247195
0.0425464
0.00226838
0.0414278
0.00208856
0.0403925
0.00192887
0.039432
0.00178634
0.0385387
0.00165855
0.0377061
0.0015435
0.0369285
0.00143949
0.036201
0.00134513
0.0355191
0.00125922
0.034879
0.00118076
0.0342773
0.00110888
0.0337108
0.00104285
0.0331769
0.00098203
0.0326731
0.000925861
0.0321972
0.000873866
0.0317472
0.000825624
0.0313213
0.000780767
0.0309179
0.00073897
0.0305356
0.000699946
0.030173
0.000663441
0.0298288
0.000629228
0.029502
0.000597106
0.0291915
0.000566894
0.0288964
0.000538429
0.0286159
0.000511565
0.0283491
0.000486169
0.0280953
0.000462123
0.027854
0.000439317
0.0276243
0.000417651
0.0274059
0.000397036
0.0271981
0.000377388
0.0270005
0.00035863
0.0268127
0.000340693
0.0266341
0.000323509
0.0264646
0.000307019
0.0263036
0.000291166
0.026151
0.000275897
0.0260063
0.000261161
0.0258694
0.000246911
0.02574
0.000233102
0.0256179
0.000219692
0.0255028
0.000206637
0.0253947
0.000193899
0.0252933
0.000181437
0.0251986
0.000169213
0.0251104
0.000157188
0.0250285
0.000145322
0.0249531
0.000133577
0.0248839
0.00012191
0.0248211
0.000110281
0.0247645
9.86423e-05
0.0247142
8.69477e-05
0.0246702
7.51446e-05
0.0246327
6.31761e-05
0.0246017
5.09785e-05
0.0245774
3.84804e-05
0.02456
2.55999e-05
0.0245497
1.22422e-05
0.0245469
-1.704e-06
0.0245518
-1.63714e-05
0.024565
-3.19206e-05
0.0245869
-4.85493e-05
0.0246183
-6.65048e-05
0.02466
-8.61032e-05
0.0247131
-0.000107758
0.0247788
-0.000132023
0.0248589
-0.000159666
0.0249556
-0.000191782
0.0250718
-0.000229988
0.0252117
-0.000276756
0.0253808
-0.000335975
0.0255868
-0.000413917
0.0258407
-0.000520869
0.0261571
-0.000673791
0.0265539
-0.000900336
0.0270493
-0.00124411
0.0276472
-0.00177021
0.0282843
-0.00256365
-0.00367355
0.0287236
0.103312
0.00667348
0.108501
0.0170183
0.111574
0.0225797
0.111772
0.0243815
0.109656
0.0238378
0.106064
0.0220408
0.10173
0.0197538
0.0971658
0.0174273
0.0926747
0.0152765
0.0884157
0.0133796
0.0844581
0.0117463
0.0808203
0.0103551
0.0774939
0.00917436
0.074458
0.00817109
0.071687
0.00731564
0.0691546
0.00658266
0.0668359
0.00595112
0.064708
0.00540385
0.0627505
0.00492687
0.0609454
0.00450883
0.0592769
0.00414049
0.0577309
0.00381429
0.0562955
0.00352404
0.0549597
0.0032646
0.0537143
0.00303174
0.052551
0.0028219
0.0514624
0.0026321
0.0504421
0.00245983
0.0494842
0.00230295
0.0485838
0.00215966
0.0477362
0.00202838
0.0469373
0.00190779
0.0461834
0.00179672
0.0454713
0.00169417
0.0447979
0.00159926
0.0441605
0.00151122
0.0435567
0.00142939
0.0429843
0.00135317
0.0424413
0.00128203
0.0419257
0.00121552
0.0414359
0.00115321
0.0409704
0.00109474
0.0405278
0.00103977
0.0401066
0.000988018
0.0397059
0.000939206
0.0393243
0.000893095
0.038961
0.000849466
0.038615
0.00080812
0.0382855
0.000768877
0.0379716
0.000731571
0.0376725
0.000696051
0.0373878
0.000662178
0.0371166
0.000629824
0.0368584
0.00059887
0.0366127
0.000569207
0.036379
0.000540733
0.0361568
0.000513351
0.0359457
0.000486974
0.0357454
0.000461515
0.0355554
0.000436896
0.0353754
0.00041304
0.0352052
0.000389875
0.0350446
0.000367331
0.0348931
0.000345339
0.0347507
0.000323833
0.0346172
0.000302748
0.0344923
0.000282019
0.0343761
0.000261579
0.0342683
0.000241364
0.0341689
0.000221303
0.0340779
0.000201327
0.0339951
0.000181361
0.0339208
0.000161325
0.0338548
0.000141133
0.0337973
0.000120693
0.0337483
9.98985e-05
0.0337082
7.86342e-05
0.033677
5.67668e-05
0.0336551
3.41428e-05
0.0336428
1.05826e-05
0.0336406
-1.41268e-05
0.0336489
-4.02422e-05
0.0336684
-6.80773e-05
0.0337
-9.80228e-05
0.0337444
-0.000130573
0.033803
-0.000166369
0.0338773
-0.000206254
0.033969
-0.000251374
0.0340805
-0.000303317
0.0342149
-0.000364349
0.0343759
-0.000437773
0.0345684
-0.00052851
0.0347985
-0.00064399
0.0350731
-0.000795497
0.0353994
-0.00100003
0.0357815
-0.00128251
0.0362148
-0.00167734
0.0366712
-0.00222662
0.0370752
-0.00296769
-0.00389034
0.037292
0.102077
0.00459602
0.106348
0.0127482
0.110418
0.0185091
0.113046
0.021754
0.113911
0.0229721
0.113196
0.0227566
0.111291
0.021658
0.108611
0.0201077
0.105493
0.0183947
0.102182
0.0166906
0.0988416
0.0150865
0.0955737
0.0136231
0.0924365
0.0123115
0.0894603
0.0111473
0.0866574
0.0101186
0.0840292
0.00921091
0.0815707
0.00840961
0.0792736
0.00770088
0.0771281
0.00707241
0.0751235
0.00651339
0.0732495
0.00601452
0.071496
0.00556782
0.0698535
0.00516649
0.0683134
0.00480471
0.0668676
0.00447753
0.0655088
0.00418072
0.0642303
0.00391064
0.0630259
0.00366418
0.0618902
0.00343865
0.0608181
0.00323173
0.0598051
0.00304141
0.058847
0.00286593
0.0579399
0.00270376
0.0570805
0.00255357
0.0562656
0.00241417
0.0554923
0.00228454
0.0547579
0.00216374
0.0540601
0.00205097
0.0533967
0.00194551
0.0527655
0.0018467
0.0521647
0.00175397
0.0515926
0.00166681
0.0510477
0.00158475
0.0505283
0.00150737
0.0500332
0.00143428
0.0495612
0.00136515
0.049111
0.00129967
0.0486815
0.00123754
0.0482719
0.00117852
0.0478811
0.00112235
0.0475083
0.00106883
0.0471528
0.00101775
0.0468137
0.000968922
0.0464904
0.000922179
0.0461822
0.000877359
0.0458886
0.000834314
0.0456091
0.000792903
0.0453431
0.000752997
0.0450901
0.00071447
0.0448498
0.000677207
0.0446217
0.000641094
0.0444056
0.000606027
0.044201
0.000571901
0.0440077
0.000538617
0.0438255
0.000506077
0.0436541
0.000474185
0.0434932
0.000442845
0.0433428
0.000411962
0.0432028
0.000381438
0.0430729
0.000351173
0.0429532
0.000321065
0.0428435
0.000291006
0.042744
0.000260879
0.0426545
0.000230562
0.0425753
0.00019992
0.0425064
0.000168804
0.042448
0.000137048
0.0424003
0.000104463
0.0423636
7.08336e-05
0.0423383
3.59078e-05
0.0423248
-6.11182e-07
0.0423236
-3.90781e-05
0.0423354
-7.99236e-05
0.0423611
-0.000123678
0.0424015
-0.000171006
0.0424579
-0.000222754
0.0425317
-0.00028002
0.0426246
-0.000344255
0.0427387
-0.000417418
0.0428765
-0.000502195
0.0430411
-0.00060234
0.0432357
-0.000723153
0.0434639
-0.000872161
0.0437284
-0.00106001
0.0440298
-0.00130144
0.0443633
-0.001616
0.0447134
-0.00202742
0.0450461
-0.00255936
0.0453021
-0.00322372
-0.00399526
0.045407
0.101292
0.00330384
0.104405
0.00963544
0.108104
0.0148099
0.111405
0.018453
0.113752
0.0206256
0.114946
0.0215626
0.11504
0.0215637
0.11422
0.0209271
0.112712
0.0199027
0.110727
0.0186763
0.108438
0.0173752
0.105981
0.0160805
0.103452
0.0148401
0.10092
0.0136789
0.0984314
0.0126077
0.0960141
0.0116282
0.0936864
0.0107373
0.0914581
0.00992924
0.0893333
0.00919717
0.0873128
0.00853392
0.0853948
0.00793253
0.0835761
0.00738652
0.0818526
0.00688996
0.0802198
0.00643752
0.0786729
0.00602444
0.0772071
0.0056465
0.0758177
0.00529999
0.0745003
0.00498161
0.0732505
0.00468847
0.0720642
0.004418
0.0709377
0.00416796
0.0698673
0.00393635
0.0688496
0.00372139
0.0678817
0.00352152
0.0669605
0.00333535
0.0660834
0.00316164
0.0652479
0.00299927
0.0644516
0.00284727
0.0636923
0.00270472
0.0629682
0.00257085
0.0622772
0.00244493
0.0616177
0.00232632
0.0609881
0.00221441
0.0603867
0.0021087
0.0598123
0.00200868
0.0592636
0.00191392
0.0587392
0.00182402
0.0582382
0.00173861
0.0577593
0.00165735
0.0573017
0.00157993
0.0568645
0.00150608
0.0564467
0.00143552
0.0560476
0.00136801
0.0556665
0.00130332
0.0553026
0.00124124
0.0549553
0.00118158
0.0546241
0.00112415
0.0543083
0.00106877
0.0540075
0.00101528
0.0537212
0.000963529
0.0534489
0.000913359
0.0531903
0.000864629
0.052945
0.000817202
0.0527127
0.000770943
0.052493
0.000725723
0.0522858
0.000681412
0.0520908
0.000637881
0.0519077
0.000595002
0.0517365
0.000552646
0.051577
0.000510679
0.0514291
0.000468963
0.0512928
0.000427356
0.0511679
0.000385703
0.0510547
0.000343844
0.050953
0.000301599
0.050863
0.000258776
0.0507849
0.000215157
0.0507189
0.000170498
0.0506652
0.000124523
0.0506242
7.69094e-05
0.0505963
2.7281e-05
0.050582
-2.48077e-05
0.050582
-7.98923e-05
0.0505969
-0.000138625
0.0506277
-0.000201811
0.0506754
-0.000270459
0.0507413
-0.000345851
0.0508267
-0.00042964
0.0509332
-0.000523988
0.0510628
-0.000631757
0.0512172
-0.000756774
0.0513982
-0.000904175
0.0516069
-0.00108085
0.0518428
-0.00129587
0.0521023
-0.0015609
0.0523762
-0.00188991
0.0526465
-0.00229778
0.0528833
-0.00279617
0.0530448
-0.00338517
-0.00403988
0.0530894
0.100819
0.00248532
0.103016
0.0074384
0.105987
0.0118384
0.109099
0.0153409
0.111866
0.0178591
0.113984
0.0194441
0.115325
0.0202229
0.115891
0.0203609
0.115766
0.0200275
0.115071
0.0193721
0.11393
0.0185153
0.112463
0.0175484
0.110766
0.0165364
0.108922
0.0155235
0.106991
0.0145382
0.105022
0.0135976
0.103048
0.0127108
0.101096
0.0118817
0.099182
0.011111
0.0973188
0.0103971
0.0955141
0.00973725
0.0937726
0.009128
0.0920969
0.00856569
0.0904878
0.00804661
0.0889451
0.00756717
0.0874676
0.00712396
0.0860538
0.00671381
0.0847016
0.0063338
0.0834088
0.00598126
0.082173
0.00565375
0.0809919
0.00534907
0.0798631
0.00506522
0.078784
0.00480041
0.0777526
0.00455301
0.0767664
0.00432153
0.0758234
0.00410465
0.0749215
0.00390118
0.0740587
0.00371001
0.0732333
0.00353017
0.0724434
0.00336075
0.0716874
0.00320094
0.0709637
0.00305
0.0702709
0.00290725
0.0696075
0.00277208
0.0689722
0.00264392
0.0683639
0.00252226
0.0677813
0.00240661
0.0672233
0.00229655
0.066689
0.00219167
0.0661774
0.00209159
0.0656875
0.00199597
0.0652185
0.0019045
0.0647696
0.00181687
0.0643401
0.00173281
0.0639293
0.00165206
0.0635365
0.00157437
0.0631612
0.00149952
0.0628026
0.00142729
0.0624604
0.00135748
0.0621341
0.00128989
0.0618231
0.00122433
0.0615271
0.00116063
0.0612457
0.00109861
0.0609786
0.00103811
0.0607253
0.000978954
0.0604857
0.00092099
0.0602596
0.000864055
0.0600466
0.000807987
0.0598466
0.000752622
0.0596595
0.000697795
0.0594851
0.000643333
0.0593234
0.000589057
0.0591743
0.000534778
0.0590379
0.000480293
0.0589141
0.000425385
0.0588031
0.000369815
0.0587049
0.000313319
0.0586198
0.000255602
0.058548
0.000196329
0.0584898
0.000135116
0.0584455
7.15179e-05
0.0584157
5.01173e-06
0.0584009
-6.5023e-05
0.0584016
-0.000139332
0.0584186
-0.000218822
0.0584527
-0.000304608
0.0585049
-0.000398077
0.0585763
-0.000500971
0.0586678
-0.000615499
0.0587805
-0.000744484
0.0589153
-0.000891541
0.0590724
-0.0010613
0.0592512
-0.0012596
0.059449
-0.0014937
0.0596603
-0.00177217
0.0598747
-0.00210432
0.0600756
-0.00249872
0.0602394
-0.00295996
0.0603377
-0.00348346
-0.00404878
0.0603466
0.100541
0.0019445
0.102093
0.00588634
0.104369
0.00956181
0.106997
0.0127131
0.109631
0.0152256
0.111998
0.0170767
0.11392
0.0183013
0.115306
0.0189748
0.11614
0.0191936
0.116455
0.0190573
0.116312
0.0186582
0.115785
0.0180755
0.114948
0.0173733
0.11387
0.0166014
0.112611
0.0157966
0.111223
0.0149857
0.109747
0.0141869
0.108216
0.0134126
0.106657
0.0126702
0.10509
0.0119643
0.10353
0.0112968
0.10199
0.0106681
0.100478
0.0100776
0.0990008
0.00952404
0.0975623
0.00900569
0.0961657
0.00852059
0.0948128
0.0080667
0.0935046
0.00764196
0.0922415
0.00724436
0.0910233
0.00687196
0.0898495
0.00652293
0.0887191
0.00619554
0.0876314
0.00588819
0.086585
0.00559938
0.0855788
0.00532773
0.0846115
0.00507197
0.0836817
0.00483092
0.0827882
0.0046035
0.0819297
0.00438871
0.0811048
0.00418563
0.0803123
0.00399342
0.079551
0.0038113
0.0788197
0.00363855
0.0781173
0.00347452
0.0774426
0.00331859
0.0767947
0.0031702
0.0761725
0.00302883
0.075575
0.00289399
0.0750015
0.00276524
0.0744509
0.00264216
0.0739225
0.00252435
0.0734155
0.00241147
0.0729293
0.00230316
0.072463
0.00219911
0.072016
0.00209902
0.0715878
0.00200261
0.0711777
0.00190962
0.0707852
0.00181979
0.0704098
0.00173288
0.070051
0.00164866
0.0697084
0.00156692
0.0693816
0.00148745
0.0690702
0.00141003
0.0687738
0.00133446
0.0684922
0.00126057
0.068225
0.00118814
0.0679721
0.00111699
0.0677332
0.00104693
0.067508
0.000977761
0.0672965
0.000909285
0.0670986
0.000841298
0.066914
0.000773589
0.0667429
0.000705932
0.0665851
0.00063809
0.0664407
0.000569806
0.0663097
0.000500803
0.0661922
0.000430772
0.0660884
0.000359375
0.0659985
0.000286227
0.0659228
0.000210892
0.0658614
0.00013287
0.0658148
5.15788e-05
0.0657835
-3.36622e-05
0.0657678
-0.000123661
0.0657684
-0.000219384
0.0657858
-0.000321994
0.0658206
-0.000432908
0.0658735
-0.00055386
0.065945
-0.000686982
0.0660354
-0.000834901
0.0661447
-0.00100085
0.0662722
-0.00118876
0.0664159
-0.00140336
0.0665723
-0.00165012
0.0667351
-0.00193499
0.0668946
-0.00226381
0.0670369
-0.00264096
0.0671441
-0.0030672
0.0671973
-0.0035366
-0.00403341
0.0671819
0.100374
0.00157017
0.101489
0.00477148
0.103211
0.00784038
0.105327
0.0105966
0.107614
0.0129387
0.109868
0.0148228
0.111925
0.0162439
0.113673
0.0172276
0.115045
0.0178211
0.11602
0.0180823
0.116606
0.0180723
0.116832
0.0178496
0.116739
0.0174666
0.116372
0.0169683
0.115777
0.0163915
0.114997
0.0157656
0.114071
0.0151133
0.113031
0.0144518
0.111908
0.0137936
0.110724
0.0131478
0.109501
0.0125204
0.108253
0.0119157
0.106995
0.011336
0.105736
0.0107827
0.104486
0.0102563
0.10325
0.0097565
0.102034
0.00928287
0.100841
0.0088345
0.099675
0.00841037
0.0985376
0.00800931
0.0974304
0.00763015
0.0963543
0.00727166
0.0953098
0.00693265
0.0942973
0.00661195
0.0933166
0.00630843
0.0923675
0.00602102
0.0914497
0.0057487
0.0905627
0.00549051
0.0897059
0.00524554
0.0888786
0.00501293
0.0880801
0.00479189
0.0873097
0.00458168
0.0865667
0.00438159
0.0858502
0.00419097
0.0851596
0.0040092
0.0844941
0.00383573
0.0838529
0.00367002
0.0832353
0.00351156
0.0826407
0.00335989
0.0820683
0.00321457
0.0815174
0.0030752
0.0809875
0.00294137
0.0804779
0.00281273
0.0799881
0.00268893
0.0795175
0.00256966
0.0790655
0.00245459
0.0786317
0.00234344
0.0782155
0.00223593
0.0778166
0.0021318
0.0774345
0.00203078
0.0770688
0.00193263
0.0767191
0.00183711
0.0763852
0.001744
0.0760666
0.00165306
0.0757631
0.00156407
0.0754744
0.00147682
0.0752003
0.00139108
0.0749406
0.00130664
0.0746951
0.00122327
0.0744636
0.00114075
0.0742461
0.00105884
0.0740423
0.000977302
0.0738524
0.000895881
0.0736762
0.000814306
0.0735137
0.000732289
0.073365
0.000649517
0.0732301
0.000565647
0.0731092
0.000480302
0.0730023
0.00039306
0.0729098
0.000303445
0.0728317
0.000210918
0.0727685
0.000114858
0.0727203
1.45468e-05
0.0726874
-9.08529e-05
0.0726704
-0.000202325
0.0726694
-0.000321035
0.0726849
-0.000448364
0.072717
-0.000585963
0.0727658
-0.000735799
0.0728311
-0.000900214
0.0729122
-0.00108197
0.0730078
-0.00128429
0.0731152
-0.00151081
0.0732306
-0.00176547
0.0733478
-0.00205222
0.0734584
-0.00237441
0.0735513
-0.00273385
0.0736135
-0.00312937
0.073632
-0.0035551
-0.00399911
0.0735977
0.10027
0.00129994
0.10109
0.00395144
0.102397
0.00653316
0.104073
0.00892114
0.105976
0.0110356
0.107967
0.0128323
0.109918
0.0142926
0.111726
0.015419
0.113317
0.0162305
0.114642
0.0167574
0.115678
0.0170358
0.116423
0.0171045
0.116889
0.0170014
0.117095
0.0167619
0.117069
0.0164172
0.11684
0.0159945
0.116438
0.0155162
0.115888
0.015001
0.115218
0.0144635
0.114451
0.0139154
0.113606
0.0133656
0.1127
0.0128208
0.11175
0.012286
0.110768
0.0117649
0.109765
0.0112598
0.108749
0.0107724
0.107728
0.0103036
0.106709
0.00985394
0.105696
0.00942346
0.104693
0.00901195
0.103704
0.00861902
0.102732
0.00824413
0.101778
0.00788664
0.100844
0.00754585
0.0999312
0.00722103
0.0990408
0.00691143
0.0981732
0.00661629
0.0973288
0.00633487
0.0965079
0.00606646
0.0957105
0.00581034
0.0949366
0.00556584
0.0941859
0.00533231
0.0934584
0.00510914
0.0927536
0.00489572
0.0920713
0.0046915
0.0914111
0.00449595
0.0907726
0.00430855
0.0901553
0.00412883
0.0895589
0.00395634
0.0889828
0.00379063
0.0884267
0.0036313
0.0878901
0.00347796
0.0873726
0.00333024
0.0868737
0.0031878
0.0863931
0.00305028
0.0859303
0.00291738
0.085485
0.00278879
0.0850567
0.00266421
0.0846451
0.00254336
0.0842499
0.00242597
0.0838708
0.00231178
0.0835074
0.00220052
0.0831594
0.00209195
0.0828267
0.00198581
0.0825089
0.00188188
0.0822058
0.00177991
0.0819172
0.00167965
0.081643
0.00158087
0.0813829
0.00148332
0.0811369
0.00138676
0.0809048
0.00129092
0.0806866
0.00119553
0.0804822
0.00110033
0.0802915
0.001005
0.0801145
0.000909249
0.0799513
0.000812721
0.0798019
0.000715051
0.0796664
0.000615833
0.0795448
0.000514618
0.0794373
0.000410905
0.0793441
0.00030413
0.0792653
0.000193653
0.0792011
7.87439e-05
0.0791517
-4.14373e-05
0.0791173
-0.000167859
0.0790979
-0.000301645
0.0790936
-0.000444099
0.0791044
-0.000596736
0.0791299
-0.00076131
0.0791695
-0.000939834
0.0792221
-0.00113459
0.079286
-0.00134812
0.0793583
-0.00158313
0.0794352
-0.00184234
0.0795111
-0.0021282
0.0795791
-0.00244242
0.0796306
-0.00278527
0.0796559
-0.00315471
0.0796463
-0.00354549
-0.00394853
0.0795957
0.100202
0.00109765
0.100821
0.00333258
0.101827
0.0055276
0.103151
0.00759667
0.104707
0.00947944
0.106402
0.011138
0.108143
0.0125512
0.10985
0.0137125
0.111453
0.0146268
0.112902
0.0153083
0.114161
0.0157769
0.115209
0.0160563
0.116039
0.0161716
0.116653
0.0161482
0.11706
0.01601
0.117275
0.0157791
0.117316
0.0154753
0.117202
0.0151155
0.116951
0.0147143
0.116582
0.0142841
0.116113
0.0138346
0.11556
0.0133742
0.114937
0.0129094
0.114256
0.0124452
0.11353
0.0119856
0.112769
0.0115338
0.111981
0.0110919
0.111173
0.0106616
0.110352
0.0102441
0.109524
0.00983998
0.108694
0.00944981
0.107864
0.00907373
0.107039
0.00871172
0.106221
0.00836364
0.105413
0.0080292
0.104616
0.00770807
0.103833
0.00739984
0.103064
0.00710407
0.10231
0.00682029
0.101572
0.006548
0.100851
0.00628672
0.100148
0.00603595
0.0994615
0.0057952
0.0987932
0.005564
0.0981429
0.00534187
0.0975105
0.00512836
0.096896
0.00492303
0.0962994
0.00472544
0.0957205
0.0045352
0.0951593
0.0043519
0.0946154
0.00417515
0.0940888
0.0040046
0.0935791
0.00383989
0.0930863
0.00368067
0.0926099
0.00352662
0.0921499
0.00337743
0.0917059
0.00323279
0.0912777
0.0030924
0.0908651
0.00295598
0.0904678
0.00282325
0.0900856
0.00269393
0.0897184
0.00256777
0.0893658
0.0024445
0.0890278
0.00232386
0.088704
0.0022056
0.0883945
0.00208947
0.0880989
0.00197521
0.0878172
0.00186256
0.0875493
0.00175126
0.087295
0.00164105
0.0870543
0.00153165
0.086827
0.00142277
0.0866132
0.00131413
0.0864128
0.0012054
0.0862258
0.00109624
0.0860523
0.000986309
0.0858921
0.000875207
0.0857454
0.000762514
0.0856123
0.000647765
0.0854927
0.000530446
0.0853869
0.000409985
0.0852948
0.00028574
0.0852166
0.000156987
0.0851522
2.29113e-05
0.0851018
-0.000117416
0.0850652
-0.000265046
0.0850422
-0.000421176
0.0850327
-0.000587156
0.0850358
-0.000764504
0.0850509
-0.000954906
0.0850765
-0.00116019
0.0851107
-0.0013823
0.0851507
-0.00162317
0.085193
-0.0018846
0.0852328
-0.00216798
0.0852643
-0.00247394
0.0852809
-0.00280192
0.0852758
-0.00314958
0.0852427
-0.00351239
-0.00388339
0.0851776
0.100156
0.000941478
0.100635
0.00285384
0.101421
0.00474106
0.102476
0.00654217
0.103744
0.00821179
0.105163
0.00971908
0.106669
0.0110446
0.108203
0.012179
0.109708
0.0131211
0.11114
0.0138766
0.112461
0.0144557
0.113645
0.0148723
0.114675
0.0151423
0.11554
0.0152828
0.116239
0.0153107
0.116775
0.0152429
0.117156
0.0150949
0.11739
0.014881
0.117491
0.0146141
0.117469
0.0143054
0.117339
0.0139648
0.117113
0.0136005
0.116802
0.0132197
0.116419
0.0128282
0.115974
0.0124308
0.115476
0.0120315
0.114935
0.0116335
0.114357
0.0112393
0.11375
0.010851
0.11312
0.0104699
0.112473
0.0100974
0.111812
0.00973416
0.111143
0.00938088
0.110469
0.00903791
0.109793
0.00870546
0.109117
0.00838362
0.108444
0.00807235
0.107777
0.00777155
0.107116
0.00748103
0.106464
0.00720056
0.105821
0.00692988
0.105188
0.00666868
0.104566
0.00641666
0.103957
0.00617347
0.10336
0.00593879
0.102776
0.00571225
0.102206
0.00549353
0.101649
0.00528226
0.101106
0.00507813
0.100577
0.00488078
0.100062
0.00468988
0.0995617
0.00450513
0.0990754
0.00432619
0.0986033
0.00415275
0.0981454
0.00398453
0.0977016
0.00382121
0.0972719
0.00366251
0.0968561
0.00350816
0.0964542
0.00335786
0.0960661
0.00321136
0.0956917
0.00306837
0.0953308
0.00292864
0.0949834
0.00279191
0.0946494
0.00265792
0.0943286
0.0025264
0.0940209
0.0023971
0.0937264
0.00226976
0.0934448
0.00214411
0.0931762
0.00201988
0.0929204
0.0018968
0.0926775
0.00177458
0.0924474
0.00165292
0.09223
0.00153152
0.0920253
0.00141005
0.0918334
0.00128817
0.0916542
0.00116549
0.0914878
0.00104164
0.0913341
0.000916166
0.0911933
0.000788612
0.0910653
0.00065846
0.0909501
0.000525143
0.0908478
0.000388032
0.0907584
0.000246431
0.0906817
9.95622e-05
0.0906177
-5.34399e-05
0.0905662
-0.000213539
0.0905268
-0.000381804
0.0904991
-0.000559411
0.0904822
-0.000747645
0.0904752
-0.000947878
0.0904766
-0.00116154
0.0904843
-0.00139007
0.090496
-0.0016348
0.0905082
-0.00189685
0.0905171
-0.00217686
0.090518
-0.00247484
0.0905058
-0.00278976
0.0904756
-0.0031193
0.0904228
-0.00345961
-0.00380528
0.0903447
0.100124
0.000817787
0.100503
0.00247499
0.101129
0.00411486
0.101978
0.005693
0.103015
0.00717499
0.104198
0.00853608
0.105483
0.00975956
0.106826
0.0108358
0.108186
0.0117615
0.109524
0.0125379
0.11081
0.0131702
0.112016
0.0136664
0.113122
0.0140361
0.114114
0.0142907
0.114983
0.0144418
0.115725
0.0145013
0.116338
0.0144811
0.116827
0.0143922
0.117196
0.0142453
0.117452
0.0140498
0.117602
0.0138144
0.117656
0.0135469
0.117621
0.013254
0.117508
0.0129417
0.117324
0.0126149
0.117077
0.0122781
0.116776
0.0119349
0.116427
0.0115883
0.116037
0.0112409
0.115612
0.0108948
0.115158
0.0105517
0.114679
0.010213
0.11418
0.0098797
0.113665
0.00955271
0.113138
0.00923267
0.112601
0.00892005
0.112059
0.00861518
0.111512
0.00831827
0.110963
0.00802944
0.110415
0.00774873
0.109869
0.0074761
0.109326
0.00721147
0.108788
0.00695472
0.108256
0.00670567
0.107731
0.00646415
0.107213
0.00622993
0.106704
0.0060028
0.106203
0.00578252
0.105713
0.00556883
0.105232
0.00536148
0.104762
0.00516021
0.104302
0.00496476
0.103853
0.00477487
0.103416
0.00459027
0.10299
0.00441071
0.102575
0.00423592
0.102172
0.00406565
0.10178
0.00389963
0.101401
0.00373762
0.101033
0.00357935
0.100676
0.00342458
0.100332
0.00327305
0.0999994
0.00312452
0.0996786
0.00297872
0.0993696
0.0028354
0.0990724
0.00269431
0.098787
0.00255519
0.0985133
0.00241777
0.0982514
0.00228178
0.0980013
0.00214694
0.0977629
0.00201297
0.0975363
0.00187956
0.0973214
0.0017464
0.0971183
0.00161317
0.0969269
0.00147951
0.0967474
0.00134505
0.0965796
0.00120939
0.0964237
0.00107211
0.0962796
0.000932732
0.0961472
0.000790764
0.0960267
0.000645653
0.095918
0.000496796
0.0958209
0.000343534
0.0957353
0.000185144
0.095661
2.08345e-05
0.0955977
-0.000150259
0.095545
-0.000329073
0.0955022
-0.000516611
0.0954685
-0.000713935
0.0954428
-0.000922139
0.0954235
-0.00114231
0.0954089
-0.00137548
0.0953967
-0.00162253
0.0953839
-0.00188406
0.0953673
-0.00216026
0.0953431
-0.00245072
0.0953076
-0.00275424
0.095257
-0.00306864
0.095188
-0.00339067
-0.00371606
0.0950988
0.1001
0.000717706
0.100406
0.00216912
0.100913
0.00360766
0.101606
0.00500013
0.102461
0.00632001
0.10345
0.0075474
0.104541
0.00866815
0.105704
0.00967345
0.106906
0.0105591
0.108119
0.0113245
0.109317
0.0119721
0.110477
0.0125065
0.11158
0.0129338
0.112609
0.0132613
0.113554
0.0134969
0.114406
0.0136491
0.115161
0.0137264
0.115816
0.0137372
0.116371
0.0136897
0.116829
0.0135916
0.117194
0.01345
0.117469
0.0132717
0.117661
0.0130626
0.117774
0.0128281
0.117816
0.0125732
0.117792
0.012302
0.117709
0.0120183
0.117572
0.0117253
0.117387
0.0114258
0.117159
0.0111223
0.116894
0.0108167
0.116596
0.0105108
0.11627
0.010206
0.115919
0.0099035
0.115548
0.00960429
0.115159
0.00930915
0.114755
0.00901873
0.11434
0.00873353
0.113915
0.00845392
0.113484
0.00818019
0.113047
0.00791254
0.112608
0.00765107
0.112167
0.00739587
0.111725
0.00714693
0.111285
0.00690423
0.110848
0.00666769
0.110413
0.00643722
0.109983
0.00621269
0.109558
0.00599396
0.109138
0.00578087
0.108725
0.00557323
0.108319
0.00537087
0.107921
0.00517359
0.10753
0.00498118
0.107147
0.00479344
0.106773
0.00461016
0.106407
0.00443111
0.106051
0.00425607
0.105704
0.00408482
0.105366
0.00391714
0.105038
0.0037528
0.104719
0.00359156
0.10441
0.00343319
0.104112
0.00327746
0.103823
0.00312412
0.103544
0.00297292
0.103276
0.00282362
0.103018
0.00267596
0.10277
0.00252967
0.102532
0.00238447
0.102305
0.0022401
0.102089
0.00209624
0.101882
0.00195259
0.101687
0.00180883
0.101502
0.0016646
0.101327
0.00151955
0.101163
0.00137328
0.10101
0.00122538
0.100867
0.00107539
0.100735
0.000922829
0.100614
0.000767178
0.100503
0.000607868
0.100402
0.000444289
0.100311
0.000275779
0.10023
0.000101627
0.100159
-7.89272e-05
0.100097
-0.000266688
0.100043
-0.000462497
0.0999959