/*--------------------------------*- C++ -*----------------------------------*\
| =========                 |                                                 |
| \\      /  F ield         | OpenFOAM: The Open Source CFD Toolbox           |
|  \\    /   O peration     | Version:  2406                                  |
|   \\  /    A nd           | Website:  www.openfoam.com                      |
|    \\/     M anipulation  |                                                 |
\*---------------------------------------------------------------------------*/
FoamFile
{
    version     2.0;
    format      ascii;
    arch        "LSB;label=32;scalar=64";
    class       volVectorField;
    location    "550";
    object      U;
}
// * * * * * * * * * * * * * * * * * * * * * * * * * * * * * * * * * * * * * //

dimensions      [0 1 -1 0 0 0 0];

internalField   nonuniform List<vector> 
150000
(
(7.94097 0.953545 0)
(6.6975 1.02915 0)
(5.1775 0.57843 0)
(3.90219 0.294372 0)
(3.11148 0.166102 0)
(2.60341 0.0998779 0)
(2.24734 0.0624355 0)
(1.98822 0.0414178 0)
(1.79344 0.0293164 0)
(1.64156 0.0219113 0)
(1.51933 0.0170952 0)
(1.41849 0.0137936 0)
(1.33365 0.0114221 0)
(1.26112 0.00964939 0)
(1.19829 0.00828048 0)
(1.14327 0.00719563 0)
(1.09465 0.00631777 0)
(1.05134 0.00559519 0)
(1.01251 0.00499193 0)
(0.977478 0.00448221 0)
(0.945716 0.00404703 0)
(0.916785 0.00367213 0)
(0.890322 0.00334656 0)
(0.866028 0.0030618 0)
(0.843651 0.00281113 0)
(0.822977 0.00258916 0)
(0.803825 0.00239157 0)
(0.786037 0.00221482 0)
(0.76948 0.00205599 0)
(0.754036 0.00191268 0)
(0.739603 0.00178287 0)
(0.72609 0.00166486 0)
(0.71342 0.00155722 0)
(0.701522 0.00145874 0)
(0.690335 0.00136835 0)
(0.679801 0.00128517 0)
(0.669873 0.00120842 0)
(0.660506 0.00113741 0)
(0.651659 0.00107157 0)
(0.643298 0.00101037 0)
(0.635388 0.000953361 0)
(0.627901 0.000900142 0)
(0.620809 0.000850356 0)
(0.614089 0.000803687 0)
(0.607717 0.000759853 0)
(0.601675 0.000718601 0)
(0.595942 0.000679704 0)
(0.590502 0.000642957 0)
(0.58534 0.000608175 0)
(0.580441 0.00057519 0)
(0.575791 0.000543847 0)
(0.57138 0.000514009 0)
(0.567195 0.000485545 0)
(0.563226 0.000458337 0)
(0.559465 0.000432277 0)
(0.555902 0.000407263 0)
(0.55253 0.0003832 0)
(0.549342 0.000359998 0)
(0.54633 0.000337575 0)
(0.543489 0.000315851 0)
(0.540815 0.000294749 0)
(0.538301 0.000274198 0)
(0.535943 0.000254125 0)
(0.533738 0.000234462 0)
(0.531682 0.000215142 0)
(0.529773 0.000196095 0)
(0.528008 0.000177253 0)
(0.526386 0.000158546 0)
(0.524904 0.000139903 0)
(0.523562 0.000121249 0)
(0.52236 0.000102503 0)
(0.521298 8.35813e-05 0)
(0.520376 6.43917e-05 0)
(0.519597 4.48328e-05 0)
(0.518962 2.47925e-05 0)
(0.518474 4.1441e-06 0)
(0.518137 -1.72558e-05 0)
(0.517956 -3.95731e-05 0)
(0.517937 -6.30005e-05 0)
(0.518087 -8.77669e-05 0)
(0.518415 -0.000114144 0)
(0.518932 -0.000142457 0)
(0.519651 -0.000173103 0)
(0.520588 -0.000206574 0)
(0.521764 -0.000243487 0)
(0.523202 -0.000284646 0)
(0.524933 -0.000331143 0)
(0.526997 -0.000384561 0)
(0.529446 -0.000447407 0)
(0.532351 -0.000524067 0)
(0.535818 -0.000622939 0)
(0.540004 -0.000761259 0)
(0.545174 -0.000976041 0)
(0.551794 -0.00135084 0)
(0.56074 -0.00208512 0)
(0.573659 -0.00365221 0)
(0.593756 -0.00713195 0)
(0.628836 -0.0157842 0)
(0.700964 -0.0463152 0)
(0.813898 -0.171223 0)
(10.2186 1.88712 0)
(10.3826 2.72494 0)
(9.62169 2.24107 0)
(8.49559 1.62033 0)
(7.47673 1.14056 0)
(6.6422 0.808022 0)
(5.96307 0.586478 0)
(5.41227 0.439627 0)
(4.96421 0.340493 0)
(4.59538 0.271591 0)
(4.28732 0.222129 0)
(4.02647 0.185486 0)
(3.8028 0.157554 0)
(3.60886 0.135725 0)
(3.43902 0.118296 0)
(3.289 0.104126 0)
(3.15548 0.0924241 0)
(3.03584 0.082632 0)
(2.92801 0.0743429 0)
(2.83032 0.0672552 0)
(2.74139 0.0611407 0)
(2.6601 0.0558239 0)
(2.58552 0.051168 0)
(2.51686 0.0470646 0)
(2.45346 0.0434272 0)
(2.39474 0.0401857 0)
(2.34022 0.0372831 0)
(2.28949 0.0346723 0)
(2.24218 0.0323142 0)
(2.19797 0.0301762 0)
(2.15658 0.028231 0)
(2.11777 0.0264552 0)
(2.08133 0.024829 0)
(2.04706 0.0233356 0)
(2.01479 0.0219602 0)
(1.98437 0.0206902 0)
(1.95566 0.0195147 0)
(1.92854 0.0184241 0)
(1.9029 0.01741 0)
(1.87863 0.016465 0)
(1.85564 0.0155826 0)
(1.83386 0.0147569 0)
(1.81321 0.0139829 0)
(1.79362 0.013256 0)
(1.77502 0.012572 0)
(1.75736 0.0119272 0)
(1.74059 0.0113184 0)
(1.72465 0.0107426 0)
(1.70952 0.0101969 0)
(1.69513 0.00967891 0)
(1.68146 0.0091864 0)
(1.66847 0.00871727 0)
(1.65613 0.00826963 0)
(1.64442 0.00784171 0)
(1.6333 0.0074319 0)
(1.62274 0.0070387 0)
(1.61274 0.00666068 0)
(1.60326 0.00629655 0)
(1.59429 0.00594507 0)
(1.58581 0.00560505 0)
(1.57781 0.00527538 0)
(1.57026 0.004955 0)
(1.56316 0.00464287 0)
(1.5565 0.00433799 0)
(1.55027 0.00403938 0)
(1.54446 0.00374606 0)
(1.53905 0.00345706 0)
(1.53405 0.00317139 0)
(1.52945 0.00288806 0)
(1.52525 0.00260601 0)
(1.52144 0.00232417 0)
(1.51803 0.00204138 0)
(1.51502 0.0017564 0)
(1.5124 0.00146788 0)
(1.51019 0.00117433 0)
(1.5084 0.000874089 0)
(1.50702 0.000565262 0)
(1.50608 0.000245685 0)
(1.50558 -8.71613e-05 0)
(1.50556 -0.000436251 0)
(1.50602 -0.000805142 0)
(1.507 -0.00119815 0)
(1.50854 -0.00162058 0)
(1.51067 -0.00207913 0)
(1.51344 -0.00258237 0)
(1.51693 -0.00314161 0)
(1.52122 -0.00377228 0)
(1.5264 -0.00449636 0)
(1.53262 -0.0053467 0)
(1.54007 -0.0063752 0)
(1.549 -0.00766861 0)
(1.55981 -0.00937967 0)
(1.57306 -0.0117894 0)
(1.58965 -0.0154333 0)
(1.61103 -0.0213604 0)
(1.6395 -0.0316506 0)
(1.67881 -0.0503829 0)
(1.73555 -0.0855822 0)
(1.81893 -0.154101 0)
(1.9135 -0.289335 0)
(10.1768 1.34552 0)
(10.7882 2.53795 0)
(10.9413 2.66464 0)
(10.5996 2.3674 0)
(10.0101 1.96117 0)
(9.349 1.57589 0)
(8.7006 1.2581 0)
(8.10408 1.01156 0)
(7.57292 0.824077 0)
(7.10626 0.681489 0)
(6.69759 0.572004 0)
(6.33912 0.486747 0)
(6.02341 0.419309 0)
(5.74392 0.365126 0)
(5.49512 0.320951 0)
(5.27243 0.284448 0)
(5.07206 0.253918 0)
(4.89091 0.228105 0)
(4.72638 0.206067 0)
(4.57634 0.187088 0)
(4.43899 0.170615 0)
(4.31281 0.156215 0)
(4.19654 0.143546 0)
(4.08907 0.132334 0)
(3.98948 0.12236 0)
(3.89696 0.113441 0)
(3.81081 0.105432 0)
(3.73044 0.0982077 0)
(3.6553 0.091667 0)
(3.58493 0.0857235 0)
(3.51892 0.0803045 0)
(3.45691 0.0753481 0)
(3.39857 0.0708013 0)
(3.34361 0.0666186 0)
(3.29178 0.0627607 0)
(3.24285 0.0591935 0)
(3.1966 0.0558873 0)
(3.15285 0.0528161 0)
(3.11142 0.0499569 0)
(3.07217 0.0472898 0)
(3.03496 0.0447967 0)
(2.99964 0.042462 0)
(2.96612 0.0402714 0)
(2.93428 0.0382123 0)
(2.90402 0.0362735 0)
(2.87526 0.0344447 0)
(2.84792 0.0327167 0)
(2.82191 0.0310813 0)
(2.79717 0.0295309 0)
(2.77363 0.0280586 0)
(2.75124 0.0266581 0)
(2.72994 0.0253238 0)
(2.70968 0.0240502 0)
(2.69042 0.0228325 0)
(2.67211 0.0216662 0)
(2.65472 0.0205472 0)
(2.6382 0.0194715 0)
(2.62253 0.0184354 0)
(2.60767 0.0174354 0)
(2.5936 0.0164684 0)
(2.58029 0.0155313 0)
(2.56771 0.0146209 0)
(2.55586 0.0137346 0)
(2.54471 0.0128694 0)
(2.53424 0.0120228 0)
(2.52443 0.0111919 0)
(2.51529 0.0103741 0)
(2.50679 0.00956668 0)
(2.49892 0.00876692 0)
(2.4917 0.00797197 0)
(2.48509 0.00717885 0)
(2.47912 0.00638443 0)
(2.47378 0.00558535 0)
(2.46906 0.00477798 0)
(2.46499 0.0039583 0)
(2.46156 0.00312185 0)
(2.45879 0.00226358 0)
(2.4567 0.0013777 0)
(2.45531 0.000457506 0)
(2.45464 -0.000504916 0)
(2.45474 -0.00151901 0)
(2.45563 -0.00259623 0)
(2.45737 -0.00375072 0)
(2.46002 -0.00500023 0)
(2.46365 -0.00636753 0)
(2.46836 -0.00788258 0)
(2.47427 -0.00958593 0)
(2.48151 -0.0115343 0)
(2.49029 -0.0138102 0)
(2.50085 -0.0165382 0)
(2.51355 -0.0199143 0)
(2.52883 -0.0242577 0)
(2.54737 -0.0301048 0)
(2.57007 -0.0383765 0)
(2.59818 -0.0506734 0)
(2.63336 -0.0697669 0)
(2.67755 -0.100336 0)
(2.73256 -0.149986 0)
(2.79724 -0.230268 0)
(2.85511 -0.352525 0)
(10.0798 0.823399 0)
(10.5966 1.94651 0)
(11.0631 2.45329 0)
(11.2347 2.53057 0)
(11.1193 2.36875 0)
(10.8127 2.10349 0)
(10.4013 1.81892 0)
(9.94662 1.55627 0)
(9.48826 1.3297 0)
(9.04803 1.14028 0)
(8.63617 0.983972 0)
(8.25628 0.855345 0)
(7.90841 0.749172 0)
(7.59085 0.660991 0)
(7.30112 0.587192 0)
(7.03657 0.524926 0)
(6.79458 0.471961 0)
(6.57277 0.426555 0)
(6.36897 0.38734 0)
(6.18125 0.353238 0)
(6.00793 0.32339 0)
(5.84752 0.297111 0)
(5.69873 0.273847 0)
(5.56042 0.253146 0)
(5.43158 0.234639 0)
(5.31133 0.21802 0)
(5.1989 0.203037 0)
(5.09361 0.189476 0)
(4.99483 0.177159 0)
(4.90204 0.165934 0)
(4.81474 0.155673 0)
(4.73251 0.146266 0)
(4.65496 0.137616 0)
(4.58174 0.129644 0)
(4.51253 0.122276 0)
(4.44706 0.115452 0)
(4.38506 0.109117 0)
(4.3263 0.103224 0)
(4.27058 0.0977294 0)
(4.21769 0.0925974 0)
(4.16746 0.0877947 0)
(4.11973 0.0832919 0)
(4.07436 0.0790627 0)
(4.0312 0.0750836 0)
(3.99013 0.0713335 0)
(3.95104 0.0677933 0)
(3.91383 0.0644457 0)
(3.87838 0.0612752 0)
(3.84463 0.0582676 0)
(3.81247 0.0554098 0)
(3.78184 0.0526901 0)
(3.75267 0.0500975 0)
(3.72488 0.0476221 0)
(3.69843 0.0452546 0)
(3.67325 0.0429864 0)
(3.64929 0.0408096 0)
(3.62651 0.0387168 0)
(3.60485 0.036701 0)
(3.58429 0.0347556 0)
(3.56478 0.0328745 0)
(3.54629 0.0310517 0)
(3.52879 0.0292815 0)
(3.51226 0.0275586 0)
(3.49666 0.0258776 0)
(3.48197 0.0242334 0)
(3.46818 0.0226209 0)
(3.45526 0.021035 0)
(3.44321 0.0194706 0)
(3.43201 0.0179225 0)
(3.42165 0.0163854 0)
(3.41213 0.0148537 0)
(3.40344 0.0133216 0)
(3.39559 0.0117829 0)
(3.38857 0.0102307 0)
(3.38239 0.0086577 0)
(3.37707 0.00705563 0)
(3.37261 0.00541523 0)
(3.36903 0.00372591 0)
(3.36637 0.00197543 0)
(3.36465 0.000149429 0)
(3.36392 -0.00176921 0)
(3.36421 -0.00380116 0)
(3.36558 -0.00597183 0)
(3.36811 -0.00831297 0)
(3.37189 -0.0108651 0)
(3.37701 -0.0136808 0)
(3.38361 -0.0168307 0)
(3.39186 -0.0204112 0)
(3.40195 -0.0245587 0)
(3.41417 -0.0294716 0)
(3.42883 -0.0354468 0)
(3.44638 -0.0429398 0)
(3.46734 -0.0526619 0)
(3.4924 -0.065736 0)
(3.52227 -0.083929 0)
(3.55761 -0.109963 0)
(3.59861 -0.147828 0)
(3.6441 -0.202835 0)
(3.6896 -0.280611 0)
(3.7233 -0.382036 0)
(10.0426 0.546322 0)
(10.395 1.45869 0)
(10.8535 2.05164 0)
(11.2147 2.33757 0)
(11.3915 2.39317 0)
(11.3902 2.30054 0)
(11.2487 2.12902 0)
(11.0101 1.92734 0)
(10.713 1.72438 0)
(10.3865 1.53482 0)
(10.0507 1.36469 0)
(9.71829 1.21524 0)
(9.39695 1.08534 0)
(9.09076 0.97293 0)
(8.80163 0.875679 0)
(8.53011 0.791379 0)
(8.27593 0.718059 0)
(8.03837 0.654029 0)
(7.81649 0.597864 0)
(7.60924 0.548372 0)
(7.41556 0.504563 0)
(7.23442 0.465613 0)
(7.06484 0.430836 0)
(6.90592 0.399658 0)
(6.75681 0.3716 0)
(6.61675 0.346258 0)
(6.48504 0.323288 0)
(6.36104 0.3024 0)
(6.24417 0.283348 0)
(6.1339 0.265918 0)
(6.02975 0.249929 0)
(5.93129 0.235222 0)
(5.83812 0.221661 0)
(5.74988 0.209127 0)
(5.66624 0.197515 0)
(5.58689 0.186736 0)
(5.51157 0.176707 0)
(5.44002 0.167359 0)
(5.37201 0.158628 0)
(5.30733 0.150459 0)
(5.24577 0.142803 0)
(5.18717 0.135613 0)
(5.13136 0.128851 0)
(5.07818 0.122481 0)
(5.02749 0.116471 0)
(4.97916 0.11079 0)
(4.93308 0.105413 0)
(4.88912 0.100316 0)
(4.84719 0.0954763 0)
(4.80719 0.0908741 0)
(4.76903 0.0864909 0)
(4.73264 0.08231 0)
(4.69792 0.0783155 0)
(4.66482 0.0744932 0)
(4.63326 0.0708297 0)
(4.60319 0.0673124 0)
(4.57454 0.0639297 0)
(4.54728 0.0606707 0)
(4.52134 0.0575251 0)
(4.49668 0.054483 0)
(4.47328 0.0515353 0)
(4.45107 0.048673 0)
(4.43005 0.0458876 0)
(4.41016 0.0431707 0)
(4.39139 0.0405142 0)
(4.37371 0.0379102 0)
(4.3571 0.0353506 0)
(4.34155 0.0328275 0)
(4.32703 0.0303327 0)
(4.31353 0.027858 0)
(4.30105 0.0253947 0)
(4.28958 0.0229337 0)
(4.27912 0.0204654 0)
(4.26967 0.0179794 0)
(4.26124 0.0154643 0)
(4.25383 0.0129076 0)
(4.24746 0.0102951 0)
(4.24214 0.00761082 0)
(4.23792 0.00483632 0)
(4.23481 0.00195005 0)
(4.23285 -0.00107351 0)
(4.2321 -0.00426502 0)
(4.23262 -0.00766187 0)
(4.23447 -0.0113104 0)
(4.23775 -0.0152691 0)
(4.24256 -0.0196131 0)
(4.24903 -0.0244409 0)
(4.25732 -0.0298846 0)
(4.26761 -0.0361253 0)
(4.28014 -0.0434165 0)
(4.29518 -0.0521205 0)
(4.31305 -0.0627627 0)
(4.3341 -0.0761125 0)
(4.35868 -0.0932953 0)
(4.38698 -0.115932 0)
(4.4189 -0.146271 0)
(4.45358 -0.187194 0)
(4.48875 -0.241838 0)
(4.51989 -0.312287 0)
(4.5394 -0.3963 0)
(10.0236 0.385461 0)
(10.2537 1.09645 0)
(10.6178 1.64943 0)
(10.9919 2.01122 0)
(11.2854 2.19912 0)
(11.4636 2.24885 0)
(11.5246 2.20117 0)
(11.4831 2.09332 0)
(11.3612 1.95406 0)
(11.1817 1.80303 0)
(10.9641 1.65248 0)
(10.7239 1.50933 0)
(10.4726 1.37693 0)
(10.2182 1.25651 0)
(9.9662 1.14802 0)
(9.7203 1.05079 0)
(9.48271 0.963842 0)
(9.25473 0.886122 0)
(9.03701 0.816588 0)
(8.82976 0.754273 0)
(8.63289 0.698306 0)
(8.44614 0.647915 0)
(8.26914 0.602424 0)
(8.10144 0.561245 0)
(7.94257 0.523867 0)
(7.79205 0.489848 0)
(7.64941 0.458802 0)
(7.51417 0.430399 0)
(7.38592 0.404346 0)
(7.26421 0.380393 0)
(7.14866 0.358319 0)
(7.03889 0.337931 0)
(6.93457 0.31906 0)
(6.83537 0.301557 0)
(6.74098 0.28529 0)
(6.65113 0.270143 0)
(6.56556 0.256013 0)
(6.48402 0.242808 0)
(6.4063 0.230447 0)
(6.33218 0.218855 0)
(6.26147 0.207968 0)
(6.19398 0.197726 0)
(6.12956 0.188076 0)
(6.06805 0.17897 0)
(6.0093 0.170364 0)
(5.95317 0.16222 0)
(5.89955 0.1545 0)
(5.8483 0.147173 0)
(5.79933 0.140208 0)
(5.75254 0.133578 0)
(5.70782 0.127257 0)
(5.66509 0.121222 0)
(5.62426 0.115451 0)
(5.58527 0.109925 0)
(5.54803 0.104625 0)
(5.51249 0.099534 0)
(5.47858 0.0946349 0)
(5.44624 0.0899128 0)
(5.41542 0.0853534 0)
(5.38608 0.080943 0)
(5.35816 0.0766685 0)
(5.33163 0.0725174 0)
(5.30644 0.0684778 0)
(5.28257 0.064538 0)
(5.25997 0.0606866 0)
(5.23864 0.0569123 0)
(5.21853 0.0532039 0)
(5.19963 0.0495504 0)
(5.18192 0.0459404 0)
(5.16539 0.0423622 0)
(5.15002 0.0388039 0)
(5.13581 0.0352528 0)
(5.12275 0.0316956 0)
(5.11084 0.0281181 0)
(5.10009 0.0245045 0)
(5.09051 0.0208378 0)
(5.0821 0.0170987 0)
(5.07489 0.0132657 0)
(5.06889 0.00931394 0)
(5.06415 0.00521461 0)
(5.06069 0.000933922 0)
(5.05857 -0.00356844 0)
(5.05784 -0.00834117 0)
(5.05856 -0.013444 0)
(5.06083 -0.0189513 0)
(5.06473 -0.024957 0)
(5.07037 -0.031582 0)
(5.07789 -0.0389843 0)
(5.08745 -0.0473736 0)
(5.09921 -0.0570332 0)
(5.11336 -0.0683498 0)
(5.13009 -0.0818557 0)
(5.14955 -0.0982841 0)
(5.17181 -0.118634 0)
(5.19669 -0.144232 0)
(5.22364 -0.176742 0)
(5.25139 -0.218035 0)
(5.2776 -0.269742 0)
(5.29862 -0.332249 0)
(5.30972 -0.402898 0)
(10.0134 0.283924 0)
(10.1646 0.837108 0)
(10.4345 1.31432 0)
(10.7555 1.67867 0)
(11.061 1.92448 0)
(11.3107 2.06207 0)
(11.4851 2.11025 0)
(11.5793 2.09117 0)
(11.5988 2.0259 0)
(11.5546 1.9319 0)
(11.4597 1.82239 0)
(11.3266 1.70672 0)
(11.1662 1.59108 0)
(10.9873 1.47931 0)
(10.7972 1.37355 0)
(10.6012 1.27488 0)
(10.4033 1.18364 0)
(10.2065 1.09975 0)
(10.0128 1.02286 0)
(9.8237 0.952517 0)
(9.64015 0.8882 0)
(9.46274 0.829383 0)
(9.29184 0.775557 0)
(9.12759 0.726244 0)
(8.97001 0.681002 0)
(8.81904 0.639433 0)
(8.67452 0.601173 0)
(8.53627 0.5659 0)
(8.40407 0.533323 0)
(8.27771 0.503183 0)
(8.15692 0.475249 0)
(8.04148 0.449314 0)
(7.93115 0.425193 0)
(7.82568 0.402723 0)
(7.72485 0.381757 0)
(7.62844 0.362161 0)
(7.53624 0.343818 0)
(7.44806 0.326621 0)
(7.36369 0.310475 0)
(7.28297 0.295293 0)
(7.20571 0.280997 0)
(7.13177 0.267516 0)
(7.06098 0.254786 0)
(6.9932 0.242749 0)
(6.9283 0.231351 0)
(6.86615 0.220544 0)
(6.80663 0.210284 0)
(6.74963 0.200529 0)
(6.69504 0.191243 0)
(6.64277 0.182391 0)
(6.59271 0.173942 0)
(6.54479 0.165865 0)
(6.49891 0.158133 0)
(6.45501 0.150722 0)
(6.41302 0.143607 0)
(6.37285 0.136767 0)
(6.33446 0.130179 0)
(6.29778 0.123826 0)
(6.26275 0.117688 0)
(6.22934 0.111748 0)
(6.19748 0.105988 0)
(6.16714 0.100394 0)
(6.13828 0.0949481 0)
(6.11086 0.0896364 0)
(6.08485 0.0844439 0)
(6.06022 0.079356 0)
(6.03693 0.0743582 0)
(6.01498 0.0694361 0)
(5.99434 0.0645749 0)
(5.97499 0.0597597 0)
(5.95691 0.0549749 0)
(5.94011 0.0502045 0)
(5.92457 0.0454311 0)
(5.9103 0.0406367 0)
(5.89728 0.0358013 0)
(5.88554 0.0309032 0)
(5.87508 0.0259184 0)
(5.86591 0.0208196 0)
(5.85806 0.0155763 0)
(5.85155 0.0101527 0)
(5.84641 0.00450771 0)
(5.8427 -0.00140766 0)
(5.84045 -0.00765172 0)
(5.83973 -0.0142951 0)
(5.84059 -0.0214244 0)
(5.84313 -0.0291472 0)
(5.84742 -0.0375988 0)
(5.85357 -0.0469515 0)
(5.86169 -0.0574272 0)
(5.87187 -0.0693144 0)
(5.88423 -0.0829907 0)
(5.89882 -0.0989499 0)
(5.91564 -0.117834 0)
(5.93455 -0.140461 0)
(5.95517 -0.167834 0)
(5.97676 -0.201092 0)
(5.99799 -0.24135 0)
(6.01687 -0.289328 0)
(6.03069 -0.344697 0)
(6.0365 -0.405166 0)
(10.0083 0.218042 0)
(10.1103 0.654734 0)
(10.3067 1.05496 0)
(10.5624 1.38938 0)
(10.8344 1.64645 0)
(11.0904 1.82564 0)
(11.3083 1.93326 0)
(11.475 1.98016 0)
(11.5858 1.97899 0)
(11.642 1.94212 0)
(11.6489 1.88045 0)
(11.6135 1.80284 0)
(11.5435 1.71616 0)
(11.4461 1.62542 0)
(11.3279 1.53414 0)
(11.1945 1.44469 0)
(11.0503 1.35857 0)
(10.8992 1.27665 0)
(10.7441 1.19939 0)
(10.5873 1.12695 0)
(10.4307 1.05928 0)
(10.2754 0.996243 0)
(10.1227 0.9376 0)
(9.97305 0.883093 0)
(9.82716 0.832441 0)
(9.68534 0.785365 0)
(9.54783 0.74159 0)
(9.41476 0.700858 0)
(9.28619 0.662923 0)
(9.16214 0.627559 0)
(9.04255 0.594555 0)
(8.92736 0.56372 0)
(8.81648 0.534877 0)
(8.70981 0.507864 0)
(8.60721 0.482535 0)
(8.50856 0.458755 0)
(8.41374 0.436402 0)
(8.32261 0.415365 0)
(8.23504 0.395542 0)
(8.1509 0.37684 0)
(8.07007 0.359174 0)
(7.99241 0.342467 0)
(7.91781 0.326648 0)
(7.84615 0.311652 0)
(7.77732 0.297418 0)
(7.71121 0.283892 0)
(7.64773 0.271024 0)
(7.58677 0.258766 0)
(7.52824 0.247075 0)
(7.47205 0.235912 0)
(7.41813 0.225238 0)
(7.36638 0.215021 0)
(7.31673 0.205227 0)
(7.26912 0.195826 0)
(7.22347 0.186791 0)
(7.17973 0.178094 0)
(7.13783 0.169711 0)
(7.09771 0.161619 0)
(7.05933 0.153794 0)
(7.02263 0.146216 0)
(6.98757 0.138864 0)
(6.95411 0.131719 0)
(6.92221 0.124761 0)
(6.89183 0.117972 0)
(6.86294 0.111334 0)
(6.8355 0.10483 0)
(6.80951 0.0984405 0)
(6.78492 0.0921491 0)
(6.76172 0.0859374 0)
(6.73989 0.0797872 0)
(6.71942 0.0736796 0)
(6.7003 0.0675949 0)
(6.68251 0.0615124 0)
(6.66606 0.05541 0)
(6.65095 0.0492639 0)
(6.63718 0.0430481 0)
(6.62476 0.0367339 0)
(6.61369 0.0302893 0)
(6.604 0.0236782 0)
(6.59571 0.0168593 0)
(6.58885 0.009785 0)
(6.58344 0.00239959 0)
(6.57953 -0.00536263 0)
(6.57717 -0.0135801 0)
(6.5764 -0.0223474 0)
(6.57728 -0.0317799 0)
(6.57987 -0.0420192 0)
(6.58424 -0.0532413 0)
(6.59045 -0.0656658 0)
(6.59854 -0.0795678 0)
(6.60853 -0.0952927 0)
(6.62039 -0.113271 0)
(6.63401 -0.134031 0)
(6.64912 -0.158204 0)
(6.66526 -0.186503 0)
(6.68165 -0.21966 0)
(6.69712 -0.258279 0)
(6.71006 -0.302569 0)
(6.71855 -0.351958 0)
(6.72071 -0.404651 0)
(10.0055 0.173562 0)
(10.0768 0.525142 0)
(10.2204 0.858782 0)
(10.4186 1.15354 0)
(10.6449 1.39834 0)
(10.8768 1.58905 0)
(11.0959 1.72625 0)
(11.2885 1.81412 0)
(11.4456 1.85917 0)
(11.5632 1.86892 0)
(11.6407 1.85091 0)
(11.6804 1.81209 0)
(11.686 1.75843 0)
(11.6618 1.69484 0)
(11.6126 1.62521 0)
(11.5429 1.5525 0)
(11.4566 1.47888 0)
(11.3576 1.40593 0)
(11.2488 1.33472 0)
(11.1329 1.26597 0)
(11.0121 1.20013 0)
(10.8881 1.13742 0)
(10.7626 1.07796 0)
(10.6365 1.02176 0)
(10.5108 0.968731 0)
(10.3863 0.918782 0)
(10.2636 0.871774 0)
(10.1431 0.827554 0)
(10.0251 0.785964 0)
(9.9099 0.746844 0)
(9.79764 0.710038 0)
(9.68846 0.675393 0)
(9.58242 0.642763 0)
(9.47956 0.612012 0)
(9.3799 0.583011 0)
(9.28342 0.555637 0)
(9.19009 0.529778 0)
(9.09986 0.50533 0)
(9.01269 0.482194 0)
(8.9285 0.460279 0)
(8.84723 0.439502 0)
(8.7688 0.419784 0)
(8.69315 0.401054 0)
(8.62019 0.383243 0)
(8.54986 0.366291 0)
(8.48207 0.350139 0)
(8.41675 0.334733 0)
(8.35383 0.320023 0)
(8.29324 0.305963 0)
(8.2349 0.29251 0)
(8.17875 0.279622 0)
(8.12473 0.267263 0)
(8.07277 0.255395 0)
(8.02282 0.243986 0)
(7.97481 0.233003 0)
(7.92869 0.222418 0)
(7.88441 0.212202 0)
(7.84193 0.202329 0)
(7.80118 0.192771 0)
(7.76214 0.183507 0)
(7.72476 0.17451 0)
(7.689 0.16576 0)
(7.65483 0.157234 0)
(7.62221 0.148911 0)
(7.59111 0.140769 0)
(7.56151 0.132789 0)
(7.53337 0.124948 0)
(7.50669 0.117227 0)
(7.48143 0.109605 0)
(7.45759 0.10206 0)
(7.43514 0.0945708 0)
(7.41408 0.0871136 0)
(7.39439 0.0796648 0)
(7.37609 0.0721989 0)
(7.35915 0.0646885 0)
(7.34359 0.0571038 0)
(7.32941 0.0494122 0)
(7.31662 0.0415775 0)
(7.30522 0.0335593 0)
(7.29525 0.0253117 0)
(7.28671 0.0167822 0)
(7.27964 0.00791025 0)
(7.27406 -0.00137469 0)
(7.27 -0.0111556 0)
(7.26749 -0.0215309 0)
(7.26658 -0.032618 0)
(7.2673 -0.0445582 0)
(7.26967 -0.0575222 0)
(7.27372 -0.0717164 0)
(7.27943 -0.0873909 0)
(7.28677 -0.104846 0)
(7.29565 -0.12444 0)
(7.30587 -0.146588 0)
(7.31712 -0.171753 0)
(7.32892 -0.200418 0)
(7.34054 -0.23302 0)
(7.35101 -0.269838 0)
(7.3591 -0.310818 0)
(7.36344 -0.355351 0)
(7.36283 -0.402074 0)
(10.004 0.142107 0)
(10.0556 0.430902 0)
(10.1623 0.710432 0)
(10.3152 0.966242 0)
(10.4981 1.18938 0)
(10.6963 1.37518 0)
(10.8963 1.52204 0)
(11.0867 1.63089 0)
(11.2582 1.70458 0)
(11.4049 1.74715 0)
(11.5233 1.76324 0)
(11.6123 1.75761 0)
(11.6724 1.73475 0)
(11.7054 1.69874 0)
(11.7137 1.65306 0)
(11.7002 1.60063 0)
(11.6679 1.54382 0)
(11.6196 1.48448 0)
(11.5581 1.42406 0)
(11.4857 1.36364 0)
(11.4045 1.30402 0)
(11.3166 1.24577 0)
(11.2235 1.18929 0)
(11.1266 1.13484 0)
(11.0271 1.08257 0)
(10.9259 1.03256 0)
(10.8239 0.98484 0)
(10.7218 0.939382 0)
(10.62 0.89614 0)
(10.5191 0.855045 0)
(10.4195 0.816015 0)
(10.3214 0.778959 0)
(10.225 0.743784 0)
(10.1306 0.710391 0)
(10.0382 0.678687 0)
(9.94804 0.648577 0)
(9.86013 0.61997 0)
(9.77452 0.592778 0)
(9.69125 0.566918 0)
(9.61034 0.54231 0)
(9.53177 0.518879 0)
(9.45555 0.496552 0)
(9.38165 0.475263 0)
(9.31004 0.454949 0)
(9.24069 0.435548 0)
(9.17358 0.417006 0)
(9.10865 0.399268 0)
(9.04587 0.382286 0)
(8.9852 0.366011 0)
(8.92658 0.350401 0)
(8.86998 0.335412 0)
(8.81536 0.321006 0)
(8.76267 0.307146 0)
(8.71186 0.293796 0)
(8.66289 0.280923 0)
(8.61573 0.268494 0)
(8.57033 0.25648 0)
(8.52666 0.244852 0)
(8.48468 0.233582 0)
(8.44435 0.222643 0)
(8.40564 0.212009 0)
(8.36852 0.201656 0)
(8.33296 0.191559 0)
(8.29893 0.181694 0)
(8.26641 0.172039 0)
(8.23537 0.162569 0)
(8.20579 0.153262 0)
(8.17765 0.144094 0)
(8.15094 0.135043 0)
(8.12564 0.126083 0)
(8.10174 0.117191 0)
(8.07923 0.108341 0)
(8.0581 0.0995055 0)
(8.03834 0.0906567 0)
(8.01996 0.0817639 0)
(8.00295 0.0727944 0)
(7.98732 0.0637124 0)
(7.97307 0.0544784 0)
(7.96021 0.0450487 0)
(7.94875 0.0353741 0)
(7.93872 0.025399 0)
(7.93011 0.01506 0)
(7.92296 0.00428403 0)
(7.91727 -0.00701332 0)
(7.91307 -0.0189304 0)
(7.91038 -0.0315824 0)
(7.90919 -0.0451047 0)
(7.90952 -0.0596563 0)
(7.91134 -0.0754241 0)
(7.91462 -0.0926263 0)
(7.91926 -0.111515 0)
(7.92514 -0.132377 0)
(7.93202 -0.155524 0)
(7.93959 -0.181285 0)
(7.94738 -0.209966 0)
(7.95477 -0.241804 0)
(7.96096 -0.276884 0)
(7.96504 -0.315026 0)
(7.96604 -0.355668 0)
(7.96315 -0.397777 0)
(10.003 0.118946 0)
(10.0416 0.360587 0)
(10.1226 0.597081 0)
(10.2413 0.818447 0)
(10.3879 1.01785 0)
(10.5529 1.19115 0)
(10.7269 1.3362 0)
(10.9012 1.45255 0)
(11.0683 1.54116 0)
(11.2221 1.60398 0)
(11.3582 1.64363 0)
(11.4739 1.66306 0)
(11.5679 1.66536 0)
(11.6399 1.65352 0)
(11.6907 1.63031 0)
(11.7214 1.59823 0)
(11.7337 1.55943 0)
(11.7296 1.51574 0)
(11.7108 1.46868 0)
(11.6794 1.41948 0)
(11.6371 1.36915 0)
(11.5856 1.31844 0)
(11.5264 1.26797 0)
(11.4609 1.21819 0)
(11.3904 1.16944 0)
(11.3158 1.12196 0)
(11.2381 1.07593 0)
(11.1581 1.03145 0)
(11.0765 0.988592 0)
(10.994 0.947382 0)
(10.9109 0.907823 0)
(10.8278 0.869897 0)
(10.745 0.833572 0)
(10.6628 0.798804 0)
(10.5814 0.765541 0)
(10.5012 0.733728 0)
(10.4221 0.703305 0)
(10.3445 0.674212 0)
(10.2683 0.646387 0)
(10.1937 0.619769 0)
(10.1207 0.5943 0)
(10.0495 0.569919 0)
(9.98002 0.546572 0)
(9.91229 0.524202 0)
(9.84636 0.502758 0)
(9.78222 0.482189 0)
(9.71988 0.462446 0)
(9.65933 0.443484 0)
(9.60056 0.425258 0)
(9.54355 0.407726 0)
(9.4883 0.390849 0)
(9.43478 0.374586 0)
(9.38297 0.358903 0)
(9.33285 0.343763 0)
(9.2844 0.329133 0)
(9.23759 0.314981 0)
(9.19239 0.301276 0)
(9.14879 0.287989 0)
(9.10675 0.275089 0)
(9.06626 0.26255 0)
(9.0273 0.250344 0)
(8.98983 0.238445 0)
(8.95385 0.226828 0)
(8.91932 0.215466 0)
(8.88624 0.204335 0)
(8.85458 0.19341 0)
(8.82432 0.182666 0)
(8.79546 0.172077 0)
(8.76799 0.161619 0)
(8.74188 0.151265 0)
(8.71713 0.140989 0)
(8.69373 0.130763 0)
(8.67168 0.120558 0)
(8.65097 0.110342 0)
(8.6316 0.100084 0)
(8.61357 0.0897484 0)
(8.59688 0.0792968 0)
(8.58154 0.0686877 0)
(8.56755 0.057875 0)
(8.55491 0.0468079 0)
(8.54364 0.0354289 0)
(8.53374 0.0236738 0)
(8.52522 0.0114693 0)
(8.51809 -0.00126781 0)
(8.51235 -0.0146329 0)
(8.508 -0.0287354 0)
(8.50503 -0.0437008 0)
(8.50341 -0.0596728 0)
(8.50311 -0.0768152 0)
(8.50405 -0.0953129 0)
(8.50612 -0.115371 0)
(8.50916 -0.13721 0)
(8.51294 -0.161059 0)
(8.51716 -0.187137 0)
(8.52138 -0.215628 0)
(8.5251 -0.246637 0)
(8.52768 -0.280137 0)
(8.52843 -0.315899 0)
(8.52667 -0.353432 0)
(8.52183 -0.391949 0)
(10.0023 0.101311 0)
(10.0321 0.306773 0)
(10.095 0.509107 0)
(10.1884 0.701296 0)
(10.3061 0.878205 0)
(10.4421 1.03643 0)
(10.59 1.1739 0)
(10.7435 1.28971 0)
(10.8967 1.38394 0)
(11.0447 1.45741 0)
(11.1832 1.5115 0)
(11.309 1.54798 0)
(11.42 1.56879 0)
(11.5149 1.57598 0)
(11.5931 1.57159 0)
(11.6547 1.55754 0)
(11.7004 1.53559 0)
(11.7308 1.50735 0)
(11.7473 1.4742 0)
(11.7509 1.43735 0)
(11.743 1.39781 0)
(11.7249 1.35645 0)
(11.6977 1.31395 0)
(11.6628 1.27089 0)
(11.6211 1.22774 0)
(11.5737 1.18484 0)
(11.5216 1.1425 0)
(11.4654 1.10091 0)
(11.406 1.06026 0)
(11.344 1.02065 0)
(11.28 0.982178 0)
(11.2145 0.944885 0)
(11.1479 0.908806 0)
(11.0807 0.873955 0)
(11.0131 0.840328 0)
(10.9454 0.807913 0)
(10.878 0.776689 0)
(10.8109 0.746626 0)
(10.7445 0.717691 0)
(10.6788 0.689849 0)
(10.614 0.663061 0)
(10.5501 0.637286 0)
(10.4874 0.612482 0)
(10.4259 0.58861 0)
(10.3655 0.565627 0)
(10.3065 0.543494 0)
(10.2487 0.522169 0)
(10.1924 0.501614 0)
(10.1374 0.48179 0)
(10.0838 0.46266 0)
(10.0316 0.444188 0)
(9.98084 0.426339 0)
(9.9315 0.409079 0)
(9.88358 0.392375 0)
(9.83708 0.376195 0)
(9.792 0.360508 0)
(9.74833 0.345285 0)
(9.70605 0.330494 0)
(9.66517 0.316109 0)
(9.62568 0.302102 0)
(9.58755 0.288444 0)
(9.55079 0.275111 0)
(9.51538 0.262074 0)
(9.48131 0.249308 0)
(9.44857 0.236787 0)
(9.41715 0.224485 0)
(9.38704 0.212377 0)
(9.35824 0.200435 0)
(9.33073 0.188634 0)
(9.30451 0.176945 0)
(9.27958 0.165341 0)
(9.25593 0.153793 0)
(9.23355 0.142269 0)
(9.21245 0.130739 0)
(9.19262 0.119166 0)
(9.17406 0.107516 0)
(9.15678 0.0957473 0)
(9.14077 0.0838184 0)
(9.12605 0.071682 0)
(9.1126 0.0592863 0)
(9.10045 0.046574 0)
(9.08957 0.0334813 0)
(9.07999 0.0199368 0)
(9.07168 0.00586048 0)
(9.06465 -0.00883772 0)
(9.05889 -0.0242589 0)
(9.05435 -0.0405166 0)
(9.05101 -0.0577374 0)
(9.0488 -0.076061 0)
(9.04763 -0.0956399 0)
(9.04739 -0.116636 0)
(9.0479 -0.139215 0)
(9.04894 -0.163538 0)
(9.05022 -0.189744 0)
(9.05138 -0.217931 0)
(9.05199 -0.24812 0)
(9.05155 -0.280224 0)
(9.04956 -0.314007 0)
(9.04551 -0.349049 0)
(9.03902 -0.384742 0)
(10.0018 0.0875021 0)
(10.0254 0.264603 0)
(10.0752 0.439615 0)
(10.1499 0.607486 0)
(10.2452 0.764335 0)
(10.3573 0.90743 0)
(10.4819 1.03496 0)
(10.6144 1.14595 0)
(10.7505 1.2401 0)
(10.8864 1.3177 0)
(11.0183 1.37943 0)
(11.1435 1.4263 0)
(11.2596 1.45952 0)
(11.3648 1.48043 0)
(11.458 1.49045 0)
(11.5386 1.49096 0)
(11.6063 1.48333 0)
(11.6614 1.46881 0)
(11.7041 1.4486 0)
(11.7351 1.42373 0)
(11.7552 1.39515 0)
(11.7652 1.36368 0)
(11.7659 1.33002 0)
(11.7583 1.29478 0)
(11.7432 1.25846 0)
(11.7215 1.2215 0)
(11.6939 1.18425 0)
(11.6612 1.14699 0)
(11.6241 1.10997 0)
(11.5832 1.07337 0)
(11.5391 1.03733 0)
(11.4924 1.00198 0)
(11.4434 0.967405 0)
(11.3926 0.93366 0)
(11.3404 0.900796 0)
(11.2872 0.86884 0)
(11.2331 0.83781 0)
(11.1786 0.807711 0)
(11.1238 0.778539 0)
(11.0689 0.750286 0)
(11.0142 0.722937 0)
(10.9597 0.696472 0)
(10.9056 0.670869 0)
(10.8521 0.646103 0)
(10.7992 0.622146 0)
(10.747 0.598972 0)
(10.6956 0.576551 0)
(10.6451 0.554853 0)
(10.5956 0.533848 0)
(10.547 0.513507 0)
(10.4994 0.4938 0)
(10.4529 0.474696 0)
(10.4075 0.456168 0)
(10.3632 0.438184 0)
(10.32 0.420718 0)
(10.2779 0.403741 0)
(10.2371 0.387226 0)
(10.1973 0.371144 0)
(10.1588 0.355469 0)
(10.1214 0.340175 0)
(10.0852 0.325235 0)
(10.0501 0.310624 0)
(10.0163 0.296314 0)
(9.98361 0.282281 0)
(9.95212 0.268498 0)
(9.92181 0.25494 0)
(9.89268 0.24158 0)
(9.86472 0.228392 0)
(9.83794 0.215347 0)
(9.81234 0.20242 0)
(9.78792 0.189579 0)
(9.76466 0.176797 0)
(9.74259 0.16404 0)
(9.72169 0.151277 0)
(9.70196 0.138473 0)
(9.68342 0.125589 0)
(9.66605 0.112586 0)
(9.64987 0.0994217 0)
(9.63487 0.0860481 0)
(9.62104 0.0724142 0)
(9.6084 0.0584641 0)
(9.59694 0.0441359 0)
(9.58665 0.0293616 0)
(9.57752 0.0140657 0)
(9.56953 -0.00183463 0)
(9.56266 -0.0184311 0)
(9.55688 -0.035824 0)
(9.55212 -0.0541222 0)
(9.54831 -0.0734425 0)
(9.54537 -0.0939076 0)
(9.54316 -0.115642 0)
(9.54152 -0.138767 0)
(9.54024 -0.16339 0)
(9.53906 -0.189592 0)
(9.53767 -0.217413 0)
(9.53573 -0.246824 0)
(9.53285 -0.277711 0)
(9.52863 -0.309846 0)
(9.52273 -0.342875 0)
(9.51486 -0.376322 0)
(10.0015 0.0764358 0)
(10.0206 0.230847 0)
(10.0608 0.38375 0)
(10.1214 0.531403 0)
(10.1995 0.670837 0)
(10.2924 0.799859 0)
(10.3972 0.916937 0)
(10.5107 1.02114 0)
(10.6297 1.11207 0)
(10.7513 1.18973 0)
(10.8725 1.25446 0)
(10.9909 1.30682 0)
(11.1045 1.34756 0)
(11.2114 1.37757 0)
(11.3104 1.39779 0)
(11.4004 1.40921 0)
(11.4808 1.41282 0)
(11.5513 1.40958 0)
(11.6118 1.40042 0)
(11.6624 1.3862 0)
(11.7035 1.36772 0)
(11.7353 1.3457 0)
(11.7585 1.32079 0)
(11.7736 1.29357 0)
(11.7812 1.26455 0)
(11.782 1.23415 0)
(11.7765 1.20276 0)
(11.7653 1.1707 0)
(11.7491 1.13824 0)
(11.7283 1.10563 0)
(11.7036 1.07304 0)
(11.6753 1.04065 0)
(11.644 1.00857 0)
(11.61 0.976915 0)
(11.5738 0.945771 0)
(11.5357 0.915201 0)
(11.496 0.885256 0)
(11.455 0.855972 0)
(11.413 0.827377 0)
(11.3701 0.799486 0)
(11.3267 0.772308 0)
(11.2828 0.745846 0)
(11.2387 0.720097 0)
(11.1946 0.695053 0)
(11.1505 0.670703 0)
(11.1066 0.647034 0)
(11.0629 0.624028 0)
(11.0197 0.601668 0)
(10.9769 0.579933 0)
(10.9347 0.558803 0)
(10.893 0.538256 0)
(10.8521 0.518269 0)
(10.8118 0.498819 0)
(10.7723 0.479882 0)
(10.7336 0.461436 0)
(10.6958 0.443454 0)
(10.6588 0.425915 0)