/*--------------------------------*- C++ -*----------------------------------*\
| =========                 |                                                 |
| \\      /  F ield         | OpenFOAM: The Open Source CFD Toolbox           |
|  \\    /   O peration     | Version:  2406                                  |
|   \\  /    A nd           | Website:  www.openfoam.com                      |
|    \\/     M anipulation  |                                                 |
\*---------------------------------------------------------------------------*/
FoamFile
{
    version     2.0;
    format      ascii;
    arch        "LSB;label=32;scalar=64";
    class       volScalarField;
    location    "24";
    object      p;
}
// * * * * * * * * * * * * * * * * * * * * * * * * * * * * * * * * * * * * * //

dimensions      [0 2 -2 0 0 0 0];

internalField   nonuniform List<scalar> 
1800
(
4.30957
3.46592
3.02583
2.82608
2.693
2.58512
2.48808
2.39211
2.29226
2.14238
3.52637
3.21192
2.97484
2.82017
2.69818
2.59144
2.4922
2.39377
2.2888
2.16047
3.15001
3.06122
2.93713
2.81605
2.70487
2.60147
2.50314
2.4069
2.31012
2.21143
3.00916
2.98362
2.90882
2.8115
2.71151
2.61412
2.52032
2.43008
2.34359
2.26249
2.95452
2.94854
2.89486
2.81103
2.71875
2.62665
2.5378
2.45366
2.37517
2.30389
2.95777
2.95168
2.89836
2.81561
2.7252
2.63589
2.55087
2.47157
2.39866
2.33294
3.01852
2.99274
2.91913
2.82496
2.73022
2.64066
2.55772
2.48167
2.41228
2.34954
3.16418
3.0752
2.95308
2.83656
2.73281
2.64052
2.55809
2.48378
2.41618
2.35467
3.54315
3.22848
2.9933
2.84304
2.72842
2.63314
2.55112
2.47797
2.41113
2.34969
4.32664
3.48234
3.04322
2.84656
2.7193
2.62122
2.54005
2.468
2.40146
2.33954
1.99709
1.99792
2.00297
2.01228
2.02405
2.03652
2.04827
2.05824
2.06573
2.07037
2.07207
2.07094
2.06721
2.06122
2.05331
2.04385
2.03319
2.02164
2.00947
1.99691
1.98413
1.97129
1.9585
1.94583
1.93335
1.92108
1.90904
1.89724
1.88568
1.87434
1.86321
1.85227
1.84151
1.83089
1.82041
1.99647
1.99724
2.00185
2.01017
2.02071
2.03194
2.04262
2.05178
2.05878
2.06322
2.06499
2.06413
2.06085
2.0554
2.0481
2.0393
2.02928
2.01836
2.00677
1.99473
1.98243
1.97001
1.95757
1.9452
1.93296
1.92089
1.90901
1.89732
1.88585
1.87456
1.86347
1.85255
1.84179
1.83117
1.82067
1.99134
1.99269
1.99772
2.00605
2.01627
2.02705
2.03725
2.04602
2.05276
2.05711
2.05894
2.05829
2.05532
2.05028
2.04345
2.03515
2.02565
2.01523
2.00413
1.99255
1.98066
1.96861
1.9565
1.94441
1.9324
1.92052
1.9088
1.89724
1.88585
1.87464
1.8636
1.85271
1.84197
1.83136
1.82086
1.98048
1.98357
1.99042
2.00019
2.01141
2.02278
2.03328
2.04215
2.04888
2.05318
2.05498
2.05433
2.05143
2.04651
2.03987
2.0318
2.02258
2.01246
2.00168
1.99041
1.97884
1.96707
1.95523
1.94339
1.9316
1.91991
1.90834
1.89692
1.88565
1.87453
1.86355
1.85272
1.84202
1.83143
1.82096
1.96346
1.96985
1.98023
1.99289
2.00623
2.01901
2.03034
2.0396
2.04643
2.05066
2.0523
2.0515
2.04846
2.04347
2.03683
2.02882
2.01971
2.00977
1.99919
1.98816
1.97682
1.96531
1.95371
1.9421
1.93053
1.91903
1.90765
1.89638
1.88524
1.87423
1.86334
1.85259
1.84194
1.8314
1.82096
1.93943
1.95149
1.96767
1.98479
2.00124
2.01602
2.02846
2.03819
2.04505
2.04908
2.0504
2.04925
2.04591
2.04069
2.03389
2.02582
2.01673
2.00688
1.99645
1.98561
1.97451
1.96323
1.95188
1.94051
1.92917
1.91789
1.9067
1.89561
1.88463
1.87375
1.86299
1.85233
1.84176
1.83129
1.8209
1.90701
1.92833
1.95361
1.97695
1.99729
2.01435
2.02792
2.03796
2.04465
2.04823
2.049
2.0473
2.04347
2.03787
2.0308
2.02258
2.01346
2.00365
1.99335
1.9827
1.97182
1.9608
1.94971
1.9386
1.92752
1.91649
1.90553
1.89464
1.88384
1.87313
1.8625
1.85196
1.8415
1.8311
1.82078
1.85851
1.89822
1.93905
1.97076
1.99548
2.01474
2.02912
2.03909
2.0452
2.04798
2.04792
2.04544
2.04096
2.03484
2.02743
2.019
2.0098
2.00003
1.98986
1.9794
1.96876
1.95801
1.94721
1.9364
1.92561
1.91485
1.90414
1.89349
1.8829
1.87237
1.86191
1.8515
1.84115
1.83086
1.82061
1.76409
1.85745
1.92655
1.96866
1.99746
2.01821
2.0326
2.04177
2.04672
2.04826
2.04704
2.04356
2.03826
2.03154
2.02371
2.01504
2.00576
1.99604
1.986
1.97576
1.96539
1.95494
1.94445
1.93396
1.92348
1.91302
1.90259
1.89219
1.88183
1.87151
1.86123
1.85098
1.84076
1.83057
1.82041
1.66088
1.83743
1.93218
1.97858
2.00717
2.02658
2.03912
2.04627
2.04925
2.04902
2.04629
2.04158
2.03534
2.02794
2.01967
2.01076
2.00141
1.99174
1.98187
1.97187
1.96179
1.95167
1.94152
1.93137
1.92122
1.91108
1.90094
1.89082
1.8807
1.8706
1.8605
1.85041
1.84033
1.83026
1.82019
1.90232
1.93379
1.98375
2.01077
2.02844
2.04113
2.04901
2.05257
2.05268
2.05014
2.04558
2.03947
2.03221
2.02409
2.01538
2.00626
1.99686
1.98729
1.97761
1.96788
1.95811
1.94833
1.93853
1.92873
1.91892
1.9091
1.89927
1.88942
1.87955
1.86966
1.85976
1.84983
1.83989
1.82994
1.81997
2.03425
2.02148
2.03717
2.04732
2.05406
2.05879
2.06076
2.05985
2.05652
2.05134
2.04477
2.03718
2.02887
2.02007
2.01096
2.00166
1.99226
1.98282
1.97337
1.96392
1.95448
1.94505
1.93561
1.92617
1.91669
1.90719
1.89765
1.88807
1.87844
1.86876
1.85904
1.84928
1.83947
1.82963
1.81975
2.12697
2.09552
2.08812
2.0841
2.08062
2.0772
2.07285
2.06713
2.06016
2.05224
2.04365
2.03463
2.02534
2.01594
2.0065
1.9971
1.98776
1.97849
1.96929
1.96015
1.95105
1.94197
1.93288
1.92377
1.91462
1.90541
1.89615
1.88682
1.87742
1.86794
1.85839
1.84877
1.83909
1.82935
1.81956
2.19471
2.15493
2.13298
2.11755
2.10497
2.09401
2.08364
2.0733
2.06286
2.05239
2.04197
2.03169
2.0216
2.01173
2.00209
1.99268
1.98346
1.97441
1.9655
1.95668
1.94791
1.93917
1.93041
1.92162
1.91277
1.90384
1.89483
1.88573
1.87652
1.86722
1.85783
1.84834
1.83877
1.82912
1.8194
2.24356
2.19969
2.1686
2.14448
2.12442
2.1071
2.09159
2.07729
2.06391
2.05133
2.03945
2.02822
2.01758
2.00745
1.99776
1.98845
1.97944
1.97066
1.96206
1.95357
1.94514
1.93672
1.92827
1.91978
1.91119
1.90252
1.89373
1.88482
1.87579
1.86665
1.85738
1.84801
1.83853
1.82895
1.81929
2.276
2.22984
2.19303
2.16275
2.1371
2.11497
2.09556
2.07829
2.06275
2.04867
2.03584
2.02407
2.01318
2.00303
1.99348
1.9844
1.97569
1.96725
1.95899
1.95084
1.94274
1.93464
1.92649
1.91826
1.90992
1.90146
1.89286
1.88412
1.87524
1.86622
1.85706
1.84778
1.83837
1.82885
1.81924
2.29396
2.24627
2.20591
2.1716
2.14218
2.11685
2.0949
2.07576
2.05897
2.04413
2.03093
2.01906
2.00829
1.99838
1.98916
1.98047
1.97216
1.96412
1.95625
1.94847
1.94071
1.93292
1.92504
1.91706
1.90894
1.90067
1.89224
1.88365
1.87489
1.86596
1.85689
1.84767
1.83831
1.82884
1.81926
2.29929
2.25036
2.2078
2.17105
2.13946
2.11239
2.0892
2.06932
2.0522
2.03736
2.02439
2.01292
2.00264
1.99329
1.98463
1.97649
1.96871
1.96116
1.95374
1.94637
1.93897
1.9315
1.9239
1.91616
1.90825
1.90016
1.89187
1.8834
1.87473
1.86589
1.85687
1.8477
1.83838
1.82893
1.81936
2.29371
2.2436
2.19959
2.16152
2.12899
2.10142
2.07818
2.0586
2.04206
2.02799
2.01589
2.00534
1.99597
1.98749
1.97966
1.97227
1.96517
1.95824
1.95136
1.94445
1.93746
1.93034
1.92304
1.91554
1.90783
1.8999
1.89175
1.88338
1.87479
1.866
1.85702
1.84787
1.83857
1.82912
1.81955
2.2826
2.23135
2.18632
2.1476
2.11486
2.08753
2.0649
2.04621
2.03073
2.01781
2.00689
1.99747
1.98918
1.9817
1.97477
1.9682
1.96183
1.95552
1.94919
1.94277
1.93618
1.9294
1.92239
1.91514
1.90762
1.89984
1.89181
1.88352
1.875
1.86626
1.8573
1.84817
1.83886
1.82941
1.81982
1.81004
1.79976
1.78957
1.77944
1.76936
1.75933
1.74933
1.73936
1.72941
1.71947
1.81029
1.79999
1.78978
1.77963
1.76953
1.75948
1.74946
1.73948
1.72952
1.71958
1.81047
1.80017
1.78994
1.77978
1.76967
1.7596
1.74958
1.73958
1.72961
1.71967
1.81057
1.80027
1.79005
1.77988
1.76977
1.7597
1.74967
1.73966
1.72969
1.71974
1.81061
1.80032
1.79011
1.77995
1.76984
1.75977
1.74973
1.73973
1.72975
1.71979
1.81058
1.80033
1.79013
1.77999
1.76988
1.75982
1.74978
1.73977
1.72979
1.71982
1.81051
1.8003
1.79013
1.78001
1.76991
1.75985
1.74982
1.73981
1.72981
1.71984
1.81041
1.80024
1.79011
1.78001
1.76993
1.75988
1.74984
1.73983
1.72983
1.71984
1.81028
1.80017
1.79007
1.78
1.76994
1.7599
1.74987
1.73984
1.72983
1.71983
1.81013
1.80008
1.79003
1.77999
1.76995
1.75991
1.74988
1.73986
1.72983
1.71981
1.80998
1.79999
1.78999
1.77997
1.76995
1.75993
1.7499
1.73987
1.72983
1.71979
1.80984
1.7999
1.78994
1.77996
1.76996
1.75995
1.74992
1.73988
1.72983
1.71977
1.80972
1.79983
1.78991
1.77996
1.76997
1.75997
1.74994
1.7399
1.72984
1.71976
1.80962
1.79978
1.78989
1.77996
1.76999
1.75999
1.74997
1.73992
1.72985
1.71976
1.80956
1.79976
1.78989
1.77998
1.77003
1.76003
1.75001
1.73995
1.72988
1.71978
1.80954
1.79977
1.78992
1.78002
1.77007
1.76008
1.75006
1.74
1.72992
1.71981
1.80958
1.79982
1.78999
1.78009
1.77014
1.76015
1.75012
1.74006
1.72997
1.71986
1.80969
1.79993
1.7901
1.7802
1.77025
1.76025
1.75021
1.74014
1.73005
1.71993
1.80988
1.80011
1.79026
1.78035
1.77038
1.76037
1.75033
1.74025
1.73015
1.72002
1.81013
1.80034
1.79047
1.78054
1.77055
1.76052
1.75046
1.74037
1.73026
1.72013
1.70955
1.69965
1.68975
1.67987
1.67001
1.66017
1.65035
1.64056
1.63081
1.62111
1.61146
1.60189
1.59239
1.583
1.57373
1.56461
1.55566
1.54691
1.53841
1.53021
1.52234
1.51489
1.50793
1.50157
1.49593
1.4912
1.4876
1.48539
1.4849
1.48646
1.49029
1.49635
1.50399
1.51155
1.51654
1.70966
1.69975
1.68986
1.68
1.67015
1.66033
1.65054
1.64079
1.63108
1.62143
1.61184
1.60234
1.59294
1.58366
1.57453
1.56557
1.55681
1.54829
1.54006
1.53218
1.52469
1.51768
1.51123
1.50545
1.50045
1.4964
1.49346
1.49184
1.49177
1.49346
1.49703
1.50239
1.5091
1.51609
1.52138
1.70975
1.69984
1.68996
1.6801
1.67027
1.66047
1.6507
1.64097
1.6313
1.6217
1.61217
1.60274
1.59342
1.58423
1.57521
1.56639
1.5578
1.54948
1.54149
1.53389
1.52674
1.52012
1.51412
1.50883
1.50439
1.5009
1.49851
1.49738
1.49765
1.49948
1.50294
1.50804
1.51467
1.52249
1.5296
1.70982
1.69991
1.69003
1.68017
1.67034
1.66055
1.65079
1.64108
1.63143
1.62184
1.61234
1.60294
1.59366
1.58453
1.57558
1.56683
1.55833
1.55013
1.54228
1.53483
1.52787
1.52147
1.51572
1.51071
1.50656
1.50337
1.50126
1.50035
1.50077
1.50268
1.50622
1.51157
1.51906
1.52908
1.53933
1.70986
1.69995
1.69006
1.6802
1.67036
1.66056
1.6508
1.64109
1.63143
1.62185
1.61235
1.60295
1.59367
1.58454
1.57559
1.56685
1.55836
1.55017
1.54234
1.53492
1.52799
1.52162
1.5159
1.51093
1.5068
1.50362
1.50149
1.50052
1.50087
1.50272
1.50633
1.51212
1.521
1.53414
1.54863
1.70988
1.69996
1.69006
1.68018
1.67033
1.66052
1.65074
1.641
1.63132
1.6217
1.61217
1.60273
1.59341
1.58423
1.57522
1.56641
1.55784
1.54956
1.54162
1.53407
1.52699
1.52045
1.51453
1.50931
1.50489
1.50137
1.49884
1.49742
1.49729
1.49871
1.50207
1.50812
1.51843
1.53548
1.55531
1.70988
1.69994
1.69002
1.68013
1.67025
1.6604
1.65059
1.64081
1.63108
1.62141
1.61181
1.6023
1.59289
1.5836
1.57447
1.56551
1.55676
1.54827
1.54008
1.53225
1.52482
1.51788
1.51148
1.5057
1.50062
1.49632
1.49289
1.49045
1.4892
1.48945
1.49177
1.49725
1.50864
1.53016
1.55614
1.70986
1.6999
1.68996
1.68003
1.67012
1.66023
1.65036
1.64053
1.63074
1.62099
1.61129
1.60167
1.59212
1.58268
1.57335
1.56417
1.55515
1.54634
1.53777
1.52948
1.52152
1.51394
1.50678
1.50009
1.49394
1.48835
1.4834
1.47915
1.47579
1.47366
1.47341
1.47662
1.48764
1.51483
1.55101
1.70983
1.69985
1.68987
1.6799
1.66995
1.66
1.65008
1.64018
1.6303
1.62045
1.61063
1.60086
1.59115
1.5815
1.57193
1.56246
1.55309
1.54387
1.5348
1.52591
1.51724
1.50879
1.5006
1.49268
1.48503
1.47762
1.47043
1.46343
1.45664
1.45025
1.4448
1.44201
1.44819
1.48116
1.54945
1.70979
1.69978
1.68976
1.67975
1.66975
1.65975
1.64976
1.63977
1.62979
1.61983
1.60988
1.59995
1.59004
1.58015
1.5703
1.56049
1.55072
1.541
1.53134
1.52175
1.51222
1.50274
1.49331
1.48387
1.47435
1.46464
1.45455
1.4438
1.43206
1.41892
1.40397
1.38738
1.37356
1.38352
1.46694
1.70975
1.6997
1.68965
1.6796
1.66954
1.65948
1.64942
1.63935
1.62927
1.61918
1.60909
1.59898
1.58886
1.57873
1.56858
1.5584
1.54819
1.53794
1.52764
1.51727
1.50681
1.4962
1.48538
1.47425
1.46265
1.45032
1.43689
1.42175
1.40396
1.382
1.35322
1.31304
1.25439
1.16519
1.00038
1.70971
1.69963
1.68954
1.67945
1.66934
1.65922
1.64909
1.63894
1.62876
1.61856
1.60832
1.59804
1.58772
1.57734
1.56688
1.55634
1.54569
1.53491
1.52397
1.51282
1.5014
1.48964
1.47741
1.46456
1.45083
1.43587
1.41911
1.3997
1.37631
1.34677
1.30758
1.25297
1.1743
1.05944
0.894725
1.70967
1.69957
1.68945
1.67932
1.66917
1.659
1.6488
1.63857
1.6283
1.61799
1.60763
1.5972
1.58668
1.57607
1.56534
1.55447
1.54341
1.53214
1.5206
1.50871
1.49641
1.48356
1.47001
1.45554
1.43985
1.42249
1.4028
1.37982
1.3521
1.31747
1.27268
1.21309
1.1327
1.02512
0.887455
1.70965
1.69953
1.68939
1.67922
1.66903
1.65881
1.64856
1.63827
1.62793
1.61753
1.60706
1.5965
1.58584
1.57504
1.56408
1.55292
1.54152
1.52983
1.51778
1.50527
1.49219
1.47841
1.46373
1.44788
1.43053
1.41118
1.38914
1.36346
1.33275
1.29509
1.24784
1.18758
1.11042
1.013
0.89501
1.70965
1.69951
1.68935
1.67916
1.66894
1.65869
1.64841
1.63807
1.62768
1.61721
1.60667
1.59601
1.58523
1.5743
1.56317
1.55181
1.54016
1.52815
1.51571
1.50273
1.48907
1.47457
1.45901
1.44211
1.42349
1.40265
1.37891
1.35136
1.31877
1.27953
1.23156
1.17241
1.09957
1.01128
0.908247
1.70968
1.69952
1.68934
1.67914
1.66891
1.65864
1.64833
1.63797
1.62755
1.61705
1.60646
1.59575
1.58491
1.5739
1.56267
1.55119
1.53939
1.5272
1.51453
1.50125
1.48723
1.47229
1.45617
1.43859
1.41915
1.39735
1.37253
1.34386
1.31025
1.27037
1.22259
1.16514
1.0964
1.01546
0.92315
1.70972
1.69956
1.68938
1.67917
1.66893
1.65865
1.64834
1.63797
1.62754
1.61704
1.60644
1.59573
1.58487
1.57385
1.5626
1.5511
1.53926
1.52702
1.51428
1.50092
1.48678
1.47167
1.45535
1.43749
1.4177
1.39549
1.37021
1.34108
1.30712
1.26718
1.21995
1.16411
1.09849
1.0226
0.937063
1.70979
1.69963
1.68944
1.67924
1.669
1.65873
1.64843
1.63808
1.62767
1.61718
1.60661
1.59593
1.58512
1.57414
1.56295
1.55151
1.53976
1.52762
1.51499
1.50175
1.48775
1.47279
1.45663
1.43894
1.41934
1.3973
1.3722
1.34327
1.30959
1.27008
1.22359
1.16896
1.10531
1.03221
0.950163
1.70988
1.69972
1.68954
1.67935
1.66912
1.65888
1.6486
1.63827
1.6279
1.61747
1.60696
1.59635
1.58562
1.57475
1.5637
1.55242
1.54087
1.52896
1.51662
1.50372
1.49013
1.47566
1.46006
1.44304
1.42418
1.403
1.37884
1.35093
1.31832
1.27991
1.23452
1.18101
1.11843
1.04634
0.965122
1.70999
1.69983
1.68966
1.67947
1.66926
1.65904
1.64879
1.6385
1.62818
1.6178
1.60736
1.59685
1.58623
1.57549
1.5646
1.55353
1.54222
1.53061
1.51863
1.50618
1.49312
1.4793
1.46448
1.44838
1.43061
1.41067
1.38792
1.36153
1.33052
1.2937
1.24976
1.19738
1.13546
1.06339
0.981432
0.525548
0.454699
0.443473
0.403513
0.354122
0.300466
0.241594
0.177843
0.110337
0.0389356
0.648584
0.531561
0.476533
0.422606
0.365363
0.306107
0.243913
0.178473
0.109744
0.0382343
0.716813
0.59665
0.517597
0.449046
0.382508
0.316569
0.249814
0.181424
0.110686
0.038236
0.760582
0.64718
0.557662
0.478731
0.403977
0.331312
0.259264
0.18686
0.11304
0.0384722
0.79522
0.689328
0.595531
0.509458
0.427654
0.348501
0.270847
0.193842
0.116252
0.0388358
0.822945
0.723146
0.62811
0.537496
0.450181
0.365413
0.282572
0.201078
0.119692
0.0392709
0.844205
0.748487
0.653317
0.559938
0.468677
0.379575
0.292548
0.207307
0.122692
0.0396701
0.860779
0.766937
0.671388
0.576003
0.481874
0.389636
0.299571
0.211627
0.124698
0.039927
0.876139
0.781758
0.684611
0.586902
0.490208
0.395499
0.303278
0.213538
0.125329
0.0399154
0.890954
0.79439
0.694602
0.594156
0.494958
0.398187
0.304392
0.213544
0.125099
0.0397373
)
;

boundaryField
{
    inlet
    {
        type            zeroGradient;
    }
    outlet
    {
        type            fixedValue;
        value           uniform 0;
    }
    upperWall
    {
        type            zeroGradient;
    }
    lowerWall
    {
        type            zeroGradient;
    }
    frontAndBack
    {
        type            empty;
    }
}


// ************************************************************************* //
