/*--------------------------------*- C++ -*----------------------------------*\
| =========                 |                                                 |
| \\      /  F ield         | OpenFOAM: The Open Source CFD Toolbox           |
|  \\    /   O peration     | Version:  2406                                  |
|   \\  /    A nd           | Website:  www.openfoam.com                      |
|    \\/     M anipulation  |                                                 |
\*---------------------------------------------------------------------------*/
FoamFile
{
    version     2.0;
    format      ascii;
    arch        "LSB;label=32;scalar=64";
    class       surfaceScalarField;
    location    "24";
    object      phi;
}
// * * * * * * * * * * * * * * * * * * * * * * * * * * * * * * * * * * * * * //

dimensions      [0 3 -1 0 0 0 0];

oriented        oriented;

internalField   nonuniform List<scalar> 
3480
(
0.0520825
0.0146184
0.0385092
0.0135735
0.0303031
0.00820598
0.0257305
0.00457242
0.023385
0.00234508
0.0224853
0.000899343
0.0226747
-0.000189561
0.0240097
-0.00133426
0.0272947
-0.0032852
-0.0087614
0.0360561
0.0700843
0.0112347
0.067349
0.0163097
0.0627597
0.0127961
0.0590215
0.00830997
0.056734
0.00463155
0.0558189
0.00181404
0.0561265
-0.000496676
0.0576453
-0.00285266
0.0604529
-0.0060924
-0.0115787
0.0632691
0.0710901
0.00684505
0.0752599
0.0121409
0.0769988
0.0110567
0.0774501
0.00785827
0.07759
0.00449162
0.0779106
0.00149355
0.0786208
-0.0012066
0.0797495
-0.00398138
0.0810309
-0.00737409
-0.0119537
0.0814058
0.0704493
0.00309575
0.0766491
0.00593997
0.0819959
0.00570908
0.0858427
0.00401178
0.0884476
0.00188757
0.0902088
-0.000267145
0.0914371
-0.00243484
0.0922584
-0.0048028
0.0925197
-0.00763552
-0.011117
0.0916825
0.0699943
-0.000199364
0.0765039
-0.00057164
0.0831705
-0.000957674
0.0885927
-0.00140976
0.0924683
-0.00198711
0.0949657
-0.00276387
0.0963607
-0.00382951
0.0968391
-0.00528113
0.0963994
-0.00719589
-0.00955903
0.0948418
0.0699668
-0.00346683
0.0763949
-0.00700033
0.0829179
-0.00748083
0.088124
-0.00661498
0.0916968
-0.00555895
0.0937908
-0.00485713
0.0946737
-0.00471208
0.0945456
-0.00515275
0.0934728
-0.00612279
-0.00749556
0.0914098
0.0703693
-0.0071363
0.0763358
-0.0129654
0.0812789
-0.0124235
0.0845226
-0.00985805
0.0862851
-0.00732114
0.0869171
-0.00548903
0.0866874
-0.00448234
0.0857335
-0.00419869
0.0840805
-0.00446954
-0.00511007
0.0816955
0.0709732
-0.011408
0.0748072
-0.0167994
0.0759808
-0.0135961
0.0755976
-0.00947547
0.0745705
-0.00629513
0.0732968
-0.00421602
0.0718683
-0.00305416
0.0702272
-0.00255761
0.0682628
-0.00250507
-0.00272079
0.0658735
0.0699662
-0.0146742
0.0669046
-0.0137365
0.061776
-0.0084683
0.0572525
-0.00495342
0.0538554
-0.00289909
0.0513705
-0.00173183
0.0494391
-0.00112325
0.0477361
-0.000854766
0.0460153
-0.000784486
-0.000822921
0.0441171
0.0520259
0.0382894
0.0298209
0.0248673
0.0219681
0.0202362
0.0191129
0.0182581
0.0174735
0.0166506
-0.000129763
0.000129812
-0.000339481
0.00020974
-0.000492825
0.000153359
-0.000514206
2.14374e-05
-0.000381306
-0.00013279
-0.000104815
-0.000276303
0.000287029
-0.000391584
0.000759395
-0.000472027
0.00127765
-0.000517866
0.00181117
-0.000533108
0.0023351
-0.000523521
0.00283076
-0.000495281
0.00328532
-0.000454232
0.00369101
-0.00040545
0.00404427
-0.000353093
0.00434471
-0.000300375
0.00459434
-0.000249642
0.00479673
-0.000202489
0.00495646
-0.000159894
0.0050786
-0.000122351
0.00516834
-8.99886e-05
0.00523074
-6.26792e-05
0.00527058
-4.01123e-05
0.00529219
-2.18778e-05
0.00529944
-7.49885e-06
0.00529572
3.51183e-06
0.00528389
1.16442e-05
0.0052664
1.73554e-05
0.00524523
2.10756e-05
0.00522199
2.31857e-05
0.00519794
2.40297e-05
0.00517405
2.39015e-05
0.00515104
2.30583e-05
0.0051294
2.17126e-05
2.00451e-05
0.00510944
-0.000237894
0.00036777
-0.000563843
0.000535771
-0.000721198
0.000310843
-0.000576836
-0.000122747
-9.47538e-05
-0.000614562
0.000696893
-0.00106749
0.00173523
-0.00142931
0.00294411
-0.0016802
0.00424808
-0.00182104
0.00558019
-0.00186441
0.0068857
-0.00182825
0.00812301
-0.00173189
0.00926301
-0.00159366
0.0102876
-0.00142962
0.0111878
-0.00125304
0.0119619
-0.00107434
0.0126134
-0.000901255
0.0131499
-0.000739184
0.0135812
-0.00059158
0.0139188
-0.000460325
0.0141745
-0.000346105
0.01436
-0.000248716
0.0144867
-0.000167342
0.0145651
-0.000100755
0.0146047
-4.7497e-05
0.0146138
-6.00094e-06
0.0145998
2.53149e-05
0.014569
4.79823e-05
0.0145265
6.3439e-05
0.0144766
7.30009e-05
0.0144227
7.78506e-05
0.0143676
7.9029e-05
0.0143134
7.74416e-05
0.0142613
7.38588e-05
6.89313e-05
0.0142126
-0.000248202
0.000615953
-0.000500802
0.00078842
-0.000453606
0.000263599
2.75421e-05
-0.000603825
0.000958096
-0.00154494
0.00228107
-0.00239021
0.0039039
-0.00305183
0.00572372
-0.00349964
0.00764263
-0.00373955
0.00957591
-0.00379727
0.0114553
-0.00370722
0.0132294
-0.00350562
0.0148625
-0.00322645
0.0163325
-0.00289942
0.0176287
-0.0025491
0.0187493
-0.00219488
0.0196994
-0.00185128
0.0204887
-0.00152858
0.0211305
-0.00123347
0.0216398
-0.000969738
0.0220324
-0.000738925
0.0223244
-0.000540869
0.022531
-0.000374197
0.0226668
-0.000236725
0.0227449
-0.000125763
0.0227771
-3.83697e-05
0.0227738
2.84724e-05
0.0227439
7.77197e-05
0.0226951
0.00011218
0.0226336
0.000134451
0.0225646
0.000146886
0.022492
0.000151577
0.0224191
0.000150355
0.0223483
0.000144796
0.000136235
0.022281
-0.00020164
0.000817594
-0.000244857
0.000831561
0.000178612
-0.0001597
0.00115647
-0.00158162
0.00264732
-0.00303573
0.0045476
-0.00429035
0.00673317
-0.00523721
0.00908267
-0.00584896
0.0114893
-0.00614601
0.0138655
-0.00617326
0.0161435
-0.005985
0.018274
-0.005636
0.0202243
-0.00517654
0.0219751
-0.00465005
0.0235184
-0.00409228
0.024855
-0.00353139
0.0259924
-0.00298851
0.0269425
-0.00247866
0.0277208
-0.0020117
0.0283444
-0.0015933
0.0288313
-0.00122581
0.0291996
-0.000909094
0.0294666
-0.000641204
0.0296488
-0.000418931
0.0297613
-0.000238283
0.0298177
-9.48349e-05
0.0298302
1.59889e-05
0.0298091
9.87169e-05
0.0297636
0.000157682
0.0297011
0.000196925
0.0296278
0.000220136
0.0295487
0.000230618
0.0294678
0.000231281
0.0293879
0.000224648
0.000212866
0.0293113
-0.000108025
0.000925719
0.000203074
0.000520951
0.00119448
-0.00115091
0.00284532
-0.00323214
0.00501742
-0.00520752
0.00754561
-0.00681828
0.010276
-0.00796734
0.0130794
-0.00865221
0.0158544
-0.00892081
0.0185248
-0.00884343
0.0210361
-0.00849614
0.023352
-0.00795173
0.0254508
-0.0072751
0.0273223
-0.00652134
0.0289654
-0.0057353
0.0303863
-0.00495209
0.0315959
-0.00419796
0.0326089
-0.00349151
0.0334422
-0.00284492
0.0341141
-0.00226513
0.0346434
-0.00175496
0.0350484
-0.00131406
0.0353471
-0.000939803
0.0355561
-0.000627911
0.035691
-0.000373091
0.0357656
-0.000169463
0.0357925
-1.09137e-05
0.0357826
0.000108632
0.0357452
0.000195023
0.0356884
0.000253744
0.0356186
0.000289834
0.0355414
0.00030783
0.0354608
0.000311755
0.0353803
0.000305112
0.000290905
0.0353023
7.10837e-05
0.000854842
0.000954364
-0.000363001
0.00276977
-0.00296592
0.00529642
-0.00575857
0.00826226
-0.00817322
0.0114406
-0.00999642
0.0146638
-0.0111902
0.0178148
-0.011803
0.0208157
-0.0119214
0.0236167
-0.0116442
0.0261885
-0.0110677
0.0285163
-0.0102793
0.0305957
-0.00935432
0.0324302
-0.00835562
0.0340286
-0.00733357
0.0354039
-0.0063272
0.0365715
-0.00536546
0.0375488
-0.00446864
0.0383538
-0.00364982
0.0390051
-0.00291626
0.0395207
-0.00227054
0.0399185
-0.00171175
0.0402151
-0.00123634
0.0404262
-0.000838959
0.0405662
-0.000513039
0.0406481
-0.000251352
0.0406836
-4.63853e-05
0.0406829
0.000109338
0.0406548
0.000223036
0.040607
0.000301506
0.0405458
0.000351019
0.0404763
0.000377253
0.0404028
0.00038526
0.0403284
0.000379465
0.000363681
0.0402556
0.000454158
0.000399497
0.00229685
-0.00220551
0.00529335
-0.00596372
0.00890274
-0.00936842
0.0127156
-0.0119861
0.0164832
-0.0137639
0.0200655
-0.0147725
0.0233901
-0.0151274
0.0264245
-0.0149557
0.0291599
-0.0143794
0.0316005
-0.0135081
0.0337583
-0.0124369
0.0356496
-0.0112455
0.037293
-0.00999886
0.0387081
-0.00874852
0.0399148
-0.00753379
0.0409329
-0.00638343
0.0417816
-0.00531722
0.0424794
-0.00434753
0.0430439
-0.0034807
0.0434918
-0.00271837
0.0438387
-0.00205855
0.044099
-0.0014966
0.0442861
-0.00102602
0.0444121
-0.000639056
0.0444881
-0.000327309
0.0445238
-8.2084e-05
0.0445279
0.000105257
0.0445078
0.000243055
0.0444701
0.000339184
0.0444202
0.000400927
0.0443625
0.000434904
0.0443007
0.000447028
0.0442376
0.000442501
0.00042582
0.0441754
0.00131474
-0.000914659
0.00485393
-0.0057483
0.00948212
-0.0105931
0.0142763
-0.0141633
0.0188177
-0.0165279
0.0229462
-0.0178926
0.0266185
-0.0184449
0.0298442
-0.018353
0.0326546
-0.017766
0.0350889
-0.0168136
0.0371873
-0.0156063
0.0389879
-0.0142375
0.0405262
-0.0127837
0.041834
-0.0113065
0.0429397
-0.00985415
0.0438686
-0.00846265
0.0446431
-0.00715786
0.0452829
-0.00595698
0.0458055
-0.00487011
0.0462266
-0.00390166
0.0465598
-0.00305159
0.0468178
-0.00231644
0.0470115
-0.00169033
0.0471511
-0.00116559
0.0472456
-0.000733474
0.0473029
-0.000384612
0.0473302
-0.000109421
0.0473339
0.000101583
0.0473194
0.000257548
0.0472915
0.000367106
0.0472541
0.00043826
0.0472107
0.000478301
0.0471639
0.000493761
0.047116
0.000490405
0.000473233
0.0470686
0.00362464
-0.00454136
0.0101285
-0.0122536
0.0165744
-0.0170405
0.0222235
-0.0198133
0.0270052
-0.0213101
0.0310013
-0.021889
0.0343216
-0.0217655
0.0370713
-0.0211029
0.0393428
-0.0200375
0.041215
-0.0186857
0.0427548
-0.0171462
0.0440191
-0.0155017
0.0450552
-0.0138198
0.0459031
-0.0121544
0.0465957
-0.0105467
0.0471599
-0.00902692
0.0476181
-0.00761605
0.0479883
-0.00632715
0.0482851
-0.00516697
0.0485207
-0.00413724
0.0487049
-0.00323577
0.048846
-0.00245749
0.0489509
-0.00179519
0.0490255
-0.0012402
0.049075
-0.000782968
0.0491039
-0.000413479
0.0491161
-0.000121597
0.0491151
0.000102642
0.0491038
0.000268818
0.049085
0.000385965
0.0490608
0.00046246
0.0490332
0.000505948
0.0490036
0.000523294
0.0489735
0.000520566
0.000503047
0.0489437
0.0124445
-0.0169864
0.0216182
-0.0214288
0.0283312
-0.0237551
0.0334556
-0.0249382
0.037421
-0.0252757
0.0405012
-0.0249696
0.0428899
-0.0241545
0.0447312
-0.0229443
0.0461373
-0.0214436
0.0471984
-0.0197469
0.0479886
-0.0179364
0.0485686
-0.0160817
0.0489878
-0.0142391
0.0492861
-0.0124528
0.0494951
-0.0107557
0.0496392
-0.00917108
0.049737
-0.00771394
0.0498024
-0.00639258
0.0498453
-0.00520994
0.0498728
-0.0041648
0.0498898
-0.00325278
0.0498995
-0.00246718
0.049904
-0.00179968
0.0499047
-0.00124086
0.0499024
-0.000780702
0.0498979
-0.000408885
0.0498915
-0.00011512
0.0498835
0.00011064
0.0498744
0.000278009
0.0498644
0.000396039
0.0498537
0.000473121
0.0498428
0.000516916
0.0498318
0.000534311
0.049821
0.000531408
0.000513525
0.0498106
0.038802
-0.0197338
0.0420987
-0.024727
0.0450294
-0.026686
0.0474364
-0.0273453
0.0493106
-0.0271501
0.0506827
-0.0263419
0.0516176
-0.0250896
0.0521921
-0.0235189
0.0524811
-0.0217327
0.0525531
-0.0198189
0.0524677
-0.017851
0.0522752
-0.0158892
0.0520167
-0.0139807
0.0517246
-0.0121608
0.0514234
-0.0104546
0.0511306
-0.00887844
0.0508582
-0.00744166
0.0506134
-0.00614789
0.0503999
-0.00499649
0.0502185
-0.00398352
0.0500684
-0.00310269
0.0499472
-0.00234605
0.0498521
-0.00170451
0.0497795
-0.00116832
0.0497262
-0.000727355
0.0496889
-0.000371447
0.0496644
-9.05561e-05
0.0496501
0.000125035
0.0496436
0.000284583
0.0496429
0.000396778
0.0496465
0.000469669
0.0496529
0.000510602
0.0496611
0.000526188
0.0496702
0.000522286
0.000504014
0.0496798
0.0627138
-0.0191791
0.0619647
-0.023978
0.0614973
-0.0262187
0.0611097
-0.0269576
0.0606703
-0.0267106
0.0601098
-0.0257815
0.0594095
-0.0243894
0.0585848
-0.0226942
0.0576682
-0.0208161
0.0566977
-0.0188484
0.0557108
-0.0168641
0.0547401
-0.0149187
0.0538125
-0.0130532
0.0529479
-0.0112964
0.0521599
-0.00966676
0.0514564
-0.00817507
0.0508403
-0.00682575
0.0503108
-0.00561862
0.0498644
-0.00455015
0.0494951
-0.00361436
0.049196
-0.00280368
0.0489593
-0.00210944
0.0487771
-0.00152233
0.0486416
-0.00103273
0.0485452
-0.000630913
0.0484811
-0.00030727
0.0484431
-5.24327e-05
0.0484256
0.000142598
0.048424
0.00028635
0.048434
0.000386807
0.0484525
0.000451353
0.0484765
0.000486723
0.0485038
0.000498976
0.0485326
0.000493487
0.000474951
0.0485618
0.0796018
-0.0173755
0.0770213
-0.0213974
0.0744231
-0.02362
0.071945
-0.0244792
0.0695845
-0.0243502
0.0673169
-0.0235139
0.0651249
-0.0221975
0.063008
-0.0205772
0.0609777
-0.0187857
0.0590517
-0.0169224
0.0572485
-0.0150609
0.0555838
-0.013254
0.0540689
-0.0115384
0.0527101
-0.00993776
0.0515088
-0.00846567
0.050462
-0.00712848
0.0495631
-0.00592711
0.048803
-0.00485871
0.0481705
-0.00391788
0.0476535
-0.00309751
0.0472392
-0.00238953
0.0469149
-0.00178525
0.0466683
-0.00127574
0.0464876
-0.000852026
0.046362
-0.000505255
0.0462816
-0.000226787
0.0462376
-8.29733e-06
0.0462222
0.00015815
0.0462286
0.00028004
0.0462512
0.000364365
0.0462851
0.000417573
0.0463264
0.000445544
0.0463719
0.000453565
0.0464191
0.000446326
0.000427922
0.0464663
0.0892391
-0.014932
0.0858424
-0.018
0.0821136
-0.0198908
0.0783468
-0.0207122
0.0746747
-0.0206778
0.0711597
-0.0199986
0.0678318
-0.0188693
0.0647091
-0.0174543
0.0618057
-0.0158821
0.0591325
-0.0142491
0.0566972
-0.0126254
0.0545027
-0.0110596
0.0525476
-0.00958343
0.0508258
-0.00821611
0.0493274
-0.00696749
0.0480394
-0.00584074
0.0469466
-0.00483452
0.0460321
-0.00394452
0.0452786
-0.00316456
0.0446682
-0.00248739
0.0441838
-0.00190523
0.0438085
-0.00141009
0.0435267
-0.00099398
0.0433237
-0.000649085
0.0431863
-0.000367799
0.0431024
-0.000142814
0.0430613
3.28534e-05
0.0430538
0.000165815
0.0430717
0.000262286
0.0431081
0.000328047
0.0431574
0.000368429
0.0432148
0.000388278
0.0432765
0.000391955
0.0433396
0.000383323
0.000365756
0.0434019
0.0920099
-0.0120995
0.0882504
-0.0142398
0.084007
-0.0156467
0.07959
-0.0162947
0.0751976
-0.0162849
0.0709553
-0.0157558
0.0669402
-0.0148537
0.0631985
-0.013712
0.0597565
-0.0124397
0.0566276
-0.0111198
0.0538146
-0.00981233
0.0513131
-0.00855792
0.049112
-0.00738239
0.0471961
-0.0063003
0.0455467
-0.00531822
0.0441429
-0.00443719
0.0429629
-0.00365473
0.0419842
-0.00296611
0.0411848
-0.00236539
0.0405432
-0.00184603
0.0400391
-0.00140126
0.0396532
-0.00102436
0.0393679
-0.000708785
0.039167
-0.000448205
0.0390357
-0.000236583
0.0389611
-6.81596e-05
0.0389315
6.25106e-05
0.0389369
0.000160569
0.0389684
0.000230819
0.0390189
0.000277728
0.039082
0.000305397
0.0391529
0.000317562
0.0392274
0.00031757
0.0393024
0.000308392
0.000292614
0.0393756
0.0883401
-0.00902908
0.0844734
-0.0103723
0.0801149
-0.0112874
0.075532
-0.0117111
0.0709302
-0.0116824
0.0664594
-0.0112842
0.062222
-0.0106156
0.0582829
-0.00977239
0.0546791
-0.0088354
0.0514269
-0.00786721
0.0485276
-0.00691278
0.0459721
-0.00600221
0.0437437
-0.00515393
0.0418211
-0.00437775
0.0401802
-0.00367739
0.0387954
-0.00305259
0.0376411
-0.00250055
0.0366918
-0.00201706
0.0359234
-0.00159716
0.0353128
-0.00123563
0.0348386
-0.000927249
0.0344811
-0.000666943
0.0342221
-0.000449854
0.0340452
-0.000271384
0.0339358
-0.000127168
0.0338807
-1.3104e-05
0.0338686
7.46872e-05
0.0338894
0.000139827
0.0339346
0.000185713
0.033997
0.000215474
0.0340705
0.000232001
0.0341503
0.000237903
0.0342324
0.000235537
0.0343139
0.000226969
0.000214019
0.0343926
0.0785774
-0.00591042
0.0748486
-0.006643
0.0707109
-0.00714917
0.0663717
-0.00737151
0.0620113
-0.00732146
0.0577726
-0.00704512
0.0537598
-0.00660239
0.0500409
-0.00605318
0.0466548
-0.00544895
0.0436174
-0.00482957
0.0409282
-0.00422343
0.0385752
-0.00364917
0.0365391
-0.00311776
0.0347959
-0.00263462
0.0333198
-0.00220129
0.032084
-0.00181687
0.0310624
-0.00147899
0.0302297
-0.00118448
0.0295624
-0.000929848
0.0290382
-0.000711534
0.0286371
-0.000526086
0.0283404
-0.000370202
0.0281314
-0.000240786
0.027995
-0.000134926
0.0279179
-4.99079e-05
0.0278881
1.68256e-05
0.0278953
6.76551e-05
0.0279304
0.000104821
0.0279858
0.000130395
0.0280551
0.000146307
0.0281329
0.000154311
0.0282149
0.000156018
0.0282976
0.000152848
0.0283785
0.000146081
0.000136802
0.0284558
0.063018
-0.00305485
0.0597503
-0.00337535
0.0561955
-0.00359444
0.0525019
-0.00367804
0.0488099
-0.00362959
0.0452364
-0.00347173
0.0418685
-0.00323458
0.0387635
-0.00294828
0.0359529
-0.00263854
0.0334482
-0.00232501
0.031246
-0.00202139
0.0293331
-0.00173638
0.02769
-0.00147481
0.0262941
-0.00123877
0.0251212
-0.0010285
0.0241475
-0.000843109
0.0233496
-0.000681067
0.0227058
-0.000540549
0.0221958
-0.000419636
0.021801
-0.000316447
0.0215045
-0.000229192
0.0212908
-0.000156202
0.0211463
-9.5927e-05
0.0210587
-4.69347e-05
0.0210171
-7.8914e-06
0.0210118
2.24419e-05
0.0210345
4.52248e-05
0.0210781
6.15358e-05
0.0211363
7.23809e-05
0.0212041
7.86851e-05
0.0212772
8.13011e-05
0.0213522
8.09957e-05
0.0214266
7.84619e-05
0.0214983
7.43024e-05
6.90489e-05
0.021566
0.0419697
-0.000907779
0.0395859
-0.000991905
0.0370375
-0.00104638
0.0344199
-0.00106088
0.0318271
-0.00103725
0.0293379
-0.000982982
0.0270104
-0.000907475
0.0248815
-0.000819734
0.0229697
-0.000727195
0.0212797
-0.000635323
0.0198058
-0.000547757
0.0185358
-0.000466656
0.0174539
-0.000393092
0.0165424
-0.000327387
0.0157833
-0.00026938
0.0151589
-0.000218646
0.0146526
-0.000174613
0.014249
-0.000136678
0.0139339
-0.000104228
0.0136946
-7.67026e-05
0.0135194
-5.35655e-05
0.013398
-3.43465e-05
0.0133212
-1.85964e-05
0.0132806
-5.92446e-06
0.0132691
4.05185e-06
0.0132803
1.1665e-05
0.0133086
1.72485e-05
0.0133493
2.10892e-05
0.0133984
2.34778e-05
0.0134526
2.46587e-05
0.0135091
2.48798e-05
0.0135657
2.4341e-05
0.0136209
2.32448e-05
0.0136734
2.17449e-05
1.99972e-05
0.0137223
0.0157427
0.0147508
0.0137043
0.0126434
0.0116061
0.010623
0.00971547
0.00889568
0.00816843
0.00753306
0.00698526
0.00651858
0.00612547
0.00579807
0.0055287
0.00531006
0.00513548
0.00499884
0.00489466
0.00481801
0.00476451
0.00473022
0.00471169
0.00470582
0.00470993
0.00472164
0.00473893
0.00476005
0.00478355
0.00480822
0.0048331
0.00485744
0.00488067
0.0049024
0.00492238
0.00509133
1.81997e-05
0.00507514
1.62952e-05
0.00506083
1.44217e-05
0.00504828
1.2651e-05
0.00503735
1.10342e-05
0.00502783
9.61068e-06
0.00501951
8.40543e-06
0.00501215
7.43812e-06
0.00500549
6.71956e-06
6.26053e-06
0.00499929
0.0141678
6.31935e-05
0.0141272
5.70829e-05
0.0140909
5.09442e-05
0.0140587
4.50498e-05
0.0140303
3.96035e-05
0.0140054
3.47604e-05
0.0139833
3.06296e-05
0.0139636
2.72923e-05
0.0139456
2.48041e-05
2.32109e-05
0.0139288
0.0222185
0.000125782
0.0221614
0.000114348
0.0221097
0.000102663
0.0220636
9.13041e-05
0.0220226
8.07138e-05
0.0219862
7.12275e-05
0.0219538
6.30928e-05
0.0219247
5.64915e-05
0.021898
5.15581e-05
4.83986e-05
0.0218729
0.0292393
0.000197738
0.029173
0.000180748
0.0291125
0.000163099
0.0290581
0.000145744
0.0290095
0.000129428
0.028966
0.000114717
0.0289271
0.000102037
0.0288919
9.17049e-05
0.0288595
8.39599e-05
7.8993e-05
0.028829
0.0352283
0.000271666
0.0351596
0.000249496
0.0350966
0.000226105
0.0350394
0.000202861
0.034988
0.000180837
0.0349419
0.000160861
0.0349004
0.000143561
0.0348627
0.000129408
0.0348279
0.000118766
0.000111926
0.034795
0.0401861
0.000341138
0.040121
0.00031453
0.040061
0.000286061
0.0400064
0.000257506
0.039957
0.000230265
0.0399124
0.000205428
0.0398722
0.000183826
0.0398355
0.000166093
0.0398016
0.00015272
0.000144104
0.0397694
0.0441157
0.000400814
0.0440596
0.000370689
0.0440075
0.000338082
0.0439599
0.000305125
0.0439167
0.000273511
0.0438776
0.000244563
0.0438421
0.000219299
0.0438097
0.000198502
0.0437797
0.00018278
0.000172631
0.0437512
0.0470229
0.000446519
0.0469797
0.000413853
0.0469396
0.0003782
0.0469028
0.000341966
0.0468692
0.000307069
0.0468388
0.000275017
0.0468111
0.000246974
0.0467858
0.000223843
0.0467623
0.000206327
0.000195006
0.0467399
0.0489149
0.000475263
0.0488878
0.000441025
0.0488625
0.000403491
0.0488392
0.000365232
0.048818
0.000328304
0.0487987
0.000294326
0.0487812
0.000264558
0.0487651
0.000239976
0.0487501
0.000221347
0.000209302
0.0487358
0.0498006
0.000485229
0.0497913
0.000450374
0.0497827
0.000412161
0.0497747
0.000373199
0.0497675
0.00033558
0.0497609
0.000300956
0.0497548
0.000270614
0.0497493
0.000245554
0.0497441
0.000226566
0.000214299
0.0497391
0.0496893
0.000475767
0.0496985
0.000441264
0.0497071
0.000403593
0.049715
0.000365277
0.0497223
0.00032834
0.0497289
0.000294382
0.0497349
0.000264649
0.0497403
0.000240113
0.0497454
0.00022154
0.000209566
0.0497501
0.0485902
0.000447406
0.0486172
0.000414266
0.0486425
0.000378371
0.0486658
0.000342039
0.048687
0.000307132
0.0487063
0.000275118
0.0487238
0.000247142
0.0487399
0.000224098
0.0487547
0.000206688
0.000195497
0.0487688
0.0465119
0.000401876
0.046555
0.000371166
0.0465952
0.000338269
0.0466321
0.000305202
0.0466656
0.000273585
0.0466961
0.000244694
0.0467237
0.000219522
0.046749
0.000198841
0.0467725
0.000183258
0.00017328
0.0467947
0.0434617
0.000342152
0.043518
0.00031496
0.0435701
0.000286212
0.0436178
0.000257563
0.0436611
0.000230336
0.0437002
0.000205571
0.0437357
0.000184076
0.0437681
0.000166472
0.0437981
0.000153252
0.000144824
0.0438266
0.0394454
0.000272461
0.0395107
0.000249802
0.0395708
0.000226193
0.0396255
0.000202891
0.039675
0.000180901
0.0397196
0.000161005
0.0397599
0.000143811
0.0397966
0.000129783
0.0398306
0.000119286
0.000112622
0.0398628
0.0344669
0.000198226
0.0345359
0.000180904
0.034599
0.000163118
0.0346562
0.00014575
0.0347077
0.000129476
0.0347539
0.000114846
0.0347954
0.000102255
0.0348332
9.20311e-05
0.0348681
8.44014e-05
7.95817e-05
0.0349012
0.0285281
0.000125968
0.0285946
0.00011435
0.0286551
0.000102614
0.0287096
9.12634e-05
0.0287583
8.07256e-05
0.0288018
7.12986e-05
0.0288408
6.32391e-05
0.0288761
5.67089e-05
0.0289087
5.18638e-05
4.87996e-05
0.0289394
0.0216287
6.3144e-05
0.021686
5.69676e-05
0.0217377
5.08189e-05
0.0217838
4.4948e-05
0.0218249
3.9538e-05
0.0218613
3.47395e-05
0.0218938
3.0653e-05
0.021923
2.73641e-05
0.0219499
2.49255e-05
2.33921e-05
0.0219752
0.0137671
1.811e-05
0.0138077
1.61961e-05
0.0138441
1.43231e-05
0.0138763
1.25672e-05
0.0139047
1.09635e-05
0.0139297
9.56047e-06
0.0139518
8.3707e-06
0.0139716
7.4253e-06
0.0139897
6.72381e-06
6.28969e-06
0.0140067
0.00494047
0.00495664
0.00497094
0.00498348
0.00499442
0.00500396
0.00501232
0.00501973
0.00502644
0.00503272
0.00499326
6.06714e-06
0.00498715
6.15037e-06
0.00498066
6.52014e-06
0.00497348
7.19522e-06
0.0049653
8.19649e-06
0.00495575
9.55748e-06
0.00494444
1.1317e-05
0.00493092
1.35302e-05
0.00491466
1.62613e-05
0.00489506
1.95953e-05
0.00487143
2.36303e-05
0.00484294
2.8491e-05
0.00480862
3.43213e-05
0.00476732
4.12989e-05
0.00471769
4.96296e-05
0.00465813
5.95634e-05
0.00458674
7.13906e-05
0.00450128
8.54605e-05
0.00439909
0.000102178
0.00427707
0.000122022
0.00413153
0.000145532
0.00395822
0.000173298
0.00375229
0.000205904
0.00350846
0.000243811
0.0032213
0.000287117
0.0028861
0.000335149
0.00250024
0.0003858
0.00206558
0.000434575
0.00159196
0.000473512
0.00110151
0.000490297
0.000632702
0.000468643
0.000241054
0.000391466
-8.78966e-06
0.000249727
-7.21614e-05
6.32531e-05
-7.21771e-05
0.0139124
2.25499e-05
0.0138958
2.28641e-05
0.0138781
2.42027e-05
0.0138587
2.66344e-05
0.0138367
3.0247e-05
0.0138111
3.51606e-05
0.0137809
4.15281e-05
0.0137449
4.95476e-05
0.0137018
5.94646e-05
0.0136498
7.15861e-05
0.0135871
8.62846e-05
0.0135116
0.000104014
0.0134206
0.000125318
0.0133111
0.000150848
0.0131793
0.00018138
0.0130211
0.000217833
0.0128312
0.000261291
0.0126036
0.000313032
0.0123313
0.000374537
0.0120058
0.000447511
0.0116175
0.000533846
0.0111553
0.000635539
0.0106067
0.000754468
0.00995853
0.000891954
0.00919768
0.00104794
0.00831314
0.00121964
0.00729942
0.00139944
0.0061618
0.00157208
0.0049237
0.00171141
0.00363543
0.00177828
0.00238155
0.00172215
0.0012814
0.00149135
0.000471649
0.00105914
5.64784e-05
0.000478427
-1.56901e-05
0.0218484
4.71063e-05
0.0218235
4.77788e-05
0.0217972
5.05308e-05
0.0217684
5.55099e-05
0.0217358
6.29087e-05
0.021698
7.29794e-05
0.0216535
8.60469e-05
0.0216005
0.000102525
0.0215371
0.000122931
0.0214608
0.000147905
0.0213688
0.00017823
0.021258
0.000214857
0.0211244
0.00025893
0.0209634
0.000311818
0.0207697
0.000375154
0.0205367
0.000450873
0.0202567
0.000541259
0.0199208
0.000648986
0.0195182
0.000777157
0.0190365
0.000929304
0.018461
0.00110933
0.0177753
0.00132131
0.0169608
0.00156905
0.0159977
0.00185521
0.0148659
0.00217978
0.0135482
0.00253747
0.0120339
0.00291385
0.010326
0.00328011
0.00845032
0.00358701
0.00646796
0.00376054
0.00448624
0.00370371
0.00266406
0.00331329
0.00119954
0.0025239
0.00028256
0.00139547
0.000266905
0.0287992
7.69732e-05
0.0287689
7.8073e-05
0.028737
8.24925e-05
0.028702
9.04818e-05
0.0286626
0.000102364
0.028617
0.000118556
0.0285635
0.000139595
0.0284999
0.00016616
0.0284237
0.000199102
0.0283322
0.000239471
0.0282219
0.000288556
0.0280888
0.00034792
0.0279283
0.000419449
0.0277347
0.000505405
0.0275014
0.000608487
0.0272204
0.000731897
0.0268823
0.00087942
0.0264758
0.00105549
0.0259878
0.00126524
0.0254026
0.00151453
0.0247021
0.00180985
0.0238655
0.00215802
0.0228691
0.00256556
0.0216871
0.00303739
0.0202924
0.00357462
0.0186594
0.00417073
0.0167676
0.00480584
0.0146092
0.00543863
0.0121998
0.00599654
0.00959332
0.00636697
0.00690121
0.00639571
0.00431065
0.00590407
0.00209001
0.00474435
0.000561258
0.00292458
0.000828192
0.0347629
0.000109146
0.0347303
0.000110688
0.0346959
0.000116848
0.0346585
0.000127993
0.0346163
0.00014459
0.0345676
0.00016724
0.0345105
0.000196711
0.0344427
0.000233972
0.0343616
0.000280237
0.034264
0.00033701
0.0341465
0.00040613
0.0340046
0.000489838
0.0338332
0.000590839
0.0336262
0.000712384
0.0333763
0.000858361
0.0330749
0.00103339
0.0327113
0.00124295
0.0322734
0.00149347
0.0317462
0.00179241
0.0311124
0.00214835
0.0303515
0.00257085
0.0294394
0.00307016
0.0283486
0.00365645
0.0270478
0.0043383
0.0255027
0.00511989
0.0236772
0.00599636
0.021537
0.00694627
0.019055
0.00792066
0.0162231
0.00882839
0.01307
0.00951999
0.00969002
0.00977562
0.00628176
0.00931172
0.00319055
0.00783592
0.000914478
0.00520062
0.00174267
0.039738
0.000140598
0.0397061
0.000142554
0.0396726
0.000150372
0.0396361
0.000164535
0.0395951
0.000185657
0.0395478
0.000214521
0.0394924
0.000252127
0.0394266
0.000299735
0.039348
0.000358925
0.0392533
0.000431649
0.0391392
0.000520306
0.0390012
0.000627817
0.0388343
0.00075772
0.0386324
0.000914276
0.0383882
0.00110259
0.0380928
0.00132876
0.0377357
0.0016
0.0373044
0.00192484
0.0367835
0.00231326
0.0361551
0.00277675
0.0353976
0.00332833
0.0344855
0.00398228
0.0333886
0.00475339
0.0320715
0.00565543
0.0304933
0.00669823
0.0286072
0.00788252
0.0263622
0.00919137
0.0237062
0.0105767
0.0205952
0.0119393
0.0170123
0.0131026
0.0130046
0.0137826
0.00874925
0.0135673
0.00464799
0.0119368
0.00141715
0.00843225
0.00316008
0.0437233
0.000168494
0.0436951
0.000170811
0.0436654
0.000180074
0.0436331
0.000196877
0.0435968
0.000221967
0.043555
0.000256297
0.0435061
0.000301076
0.043448
0.000357834
0.0433784
0.000428483
0.0432947
0.000515393
0.0431935
0.000621478
0.043071
0.000750295
0.0429226
0.000906161
0.0427426
0.00109429
0.0425242
0.00132093
0.0422594
0.0015936
0.0419381
0.0019212
0.0415486
0.00231432
0.0410765
0.00278539
0.0405043
0.0033489
0.0398112
0.00402147
0.0389717
0.00482174
0.0379553
0.00576985
0.0367246
0.00688611
0.0352344
0.00818842
0.0334296
0.00968733
0.0312436
0.0113774
0.0285976
0.0132226
0.0254041
0.0151324
0.0215811
0.0169251
0.0170894
0.0182745
0.0120163
0.0186401
0.00674914
0.0172062
0.00222835
0.012956
0.00538889
0.0467181
0.000190392
0.0466959
0.000192998
0.0466726
0.000203394
0.0466472
0.000222266
0.0466187
0.000250471
0.0465859
0.0002891
0.0465475
0.000339538
0.0465018
0.000403535
0.046447
0.000483282
0.0463809
0.000581497
0.0463009
0.000701528
0.0462037
0.000847469
0.0460856
0.0010243
0.0459418
0.00123806
0.0457667
0.001496
0.0455534
0.00180685
0.0452936
0.00218103
0.0449769
0.00263097
0.0445909
0.00317134
0.0441204
0.00381941
0.0435467
0.00459522
0.0428467
0.00552172
0.0419919
0.00662455
0.0409468
0.00793119
0.0396662
0.00946908
0.0380918
0.0112617
0.0361481
0.0133211
0.033736
0.0156345
0.0307279
0.0181403
0.0269675
0.0206854
0.0222884
0.0229533
0.0165889
0.0243417
0.010043
0.0237551
0.00366079
0.019342
0.00905017
0.0487218
0.000204405
0.0487076
0.000207217
0.0486927
0.000218362
0.0486763
0.000238587
0.048658
0.000268829
0.0486368
0.000310274
0.048612
0.000364432
0.0485823
0.00043321
0.0485466
0.000518997
0.0485033
0.000624763
0.0484507
0.000754174
0.0483865
0.00091172
0.0483079
0.00110288
0.0482116
0.0013343
0.0480936
0.00161402
0.0479488
0.0019517
0.0477708
0.00235896
0.0475521
0.00284968
0.0472831
0.00344036
0.046952
0.00415053
0.046544
0.00500312
0.0460409
0.0060248
0.0454194
0.00724604
0.0446497
0.00870094
0.0436926
0.0104262
0.0424959
0.0124584
0.0409875
0.0148294
0.039066
0.0175558
0.0365863
0.0206197
0.0333402
0.0239311
0.0290374
0.0272565
0.0233047
0.0300754
0.0157867
0.0312764
0.0067426
0.0283891
0.0157927
0.0497342
0.000209337
0.0497291
0.000212261
0.0497238
0.000223721
0.0497179
0.000244491
0.0497112
0.000275544
0.0497034
0.000318114
0.0496941
0.000373773
0.0496828
0.000444506
0.049669
0.000532805
0.049652
0.000641776
0.0496309
0.000775254
0.0496047
0.000937953
0.049572
0.00113564
0.049531
0.00137531
0.0494795
0.00166548
0.0494148
0.00201641
0.0493333
0.00244045
0.0492306
0.00295242
0.0491009
0.00357003
0.0489371
0.00431433
0.04873
0.00521021
0.048468
0.00628687
0.0481358
0.00757818
0.0477139
0.0091229
0.0471757
0.0109643
0.0464851
0.013149
0.0455906
0.0157239
0.0444168
0.0187294
0.0428492
0.0221869
0.040708
0.0260718
0.0377043
0.0302604
0.0333623
0.0344184
0.0268759
0.0377641
0.0166767
0.0385873
0.032469
0.0497547
0.00020476
0.0497593
0.000207695
0.049764
0.000219009
0.049769
0.000239471
0.0497746
0.000270044
0.0497807
0.000311956
0.0497878
0.000366768
0.0497958
0.000436461
0.0498051
0.000523525
0.0498159
0.000631064
0.0498282
0.000762926
0.0498423
0.000923848
0.0498583
0.00111964
0.0498763
0.00135737
0.0498961
0.00164567
0.0499176
0.00199495
0.0499403
0.00241779
0.0499634
0.00292935