/*--------------------------------*- C++ -*----------------------------------*\
| =========                 |                                                 |
| \\      /  F ield         | OpenFOAM: The Open Source CFD Toolbox           |
|  \\    /   O peration     | Version:  2406                                  |
|   \\  /    A nd           | Website:  www.openfoam.com                      |
|    \\/     M anipulation  |                                                 |
\*---------------------------------------------------------------------------*/
FoamFile
{
    version     2.0;
    format      ascii;
    arch        "LSB;label=32;scalar=64";
    class       volVectorField;
    location    "24";
    object      U;
}
// * * * * * * * * * * * * * * * * * * * * * * * * * * * * * * * * * * * * * //

dimensions      [0 1 -1 0 0 0 0];

internalField   nonuniform List<vector> 
1800
(
(0.513611 0.0690911 0)
(0.438645 0.0661054 0)
(0.344286 0.0333738 0)
(0.276143 0.0152498 0)
(0.241947 0.00701747 0)
(0.226971 0.00234898 0)
(0.22357 -0.00108985 0)
(0.230349 -0.00527721 0)
(0.253762 -0.0172303 0)
(0.295424 -0.0693407 0)
(0.678241 0.139418 0)
(0.692295 0.175294 0)
(0.653627 0.124949 0)
(0.606599 0.0754247 0)
(0.575419 0.0401747 0)
(0.559919 0.0158072 0)
(0.557123 -0.00301745 0)
(0.566139 -0.0223541 0)
(0.588466 -0.051085 0)
(0.618021 -0.107537 0)
(0.681767 0.098334 0)
(0.736268 0.153517 0)
(0.765544 0.131731 0)
(0.773906 0.09118 0)
(0.775192 0.052668 0)
(0.776811 0.020622 0)
(0.781703 -0.00682947 0)
(0.790974 -0.0345584 0)
(0.804156 -0.0695847 0)
(0.814976 -0.120868 0)
(0.676546 0.0500587 0)
(0.734929 0.0922804 0)
(0.795707 0.0889422 0)
(0.842361 0.0654904 0)
(0.873943 0.0370379 0)
(0.894915 0.00947459 0)
(0.909294 -0.0167499 0)
(0.919451 -0.0441513 0)
(0.925572 -0.076577 0)
(0.92412 -0.117341 0)
(0.674457 0.0140314 0)
(0.729337 0.0267772 0)
(0.799233 0.0248446 0)
(0.862097 0.0146113 0)
(0.908909 0.000828381 0)
(0.940187 -0.0145305 0)
(0.959034 -0.0315155 0)
(0.968113 -0.0513594 0)
(0.96853 -0.0755861 0)
(0.959118 -0.104785 0)
(0.67441 -0.0179851 0)
(0.728777 -0.0381766 0)
(0.797591 -0.0439788 0)
(0.858685 -0.0427808 0)
(0.902937 -0.0405162 0)
(0.930721 -0.0406449 0)
(0.945003 -0.0449188 0)
(0.948429 -0.0540757 0)
(0.942407 -0.0681738 0)
(0.926892 -0.0863799 0)
(0.676406 -0.0534559 0)
(0.733314 -0.102008 0)
(0.791012 -0.105152 0)
(0.832705 -0.0892479 0)
(0.857159 -0.0705611 0)
(0.868403 -0.05646 0)
(0.869948 -0.0493017 0)
(0.863839 -0.048961 0)
(0.850826 -0.0542851 0)
(0.830724 -0.0635965 0)
(0.681557 -0.100689 0)
(0.733923 -0.16018 0)
(0.758805 -0.142676 0)
(0.760256 -0.107143 0)
(0.751712 -0.075357 0)
(0.739793 -0.0530402 0)
(0.726329 -0.0402152 0)
(0.711189 -0.0349709 0)
(0.693411 -0.0351217 0)
(0.671828 -0.0386699 0)
(0.678015 -0.140524 0)
(0.689954 -0.178382 0)
(0.647033 -0.129959 0)
(0.593473 -0.0827601 0)
(0.553052 -0.0508127 0)
(0.524546 -0.031573 0)
(0.503307 -0.0212028 0)
(0.485746 -0.0165567 0)
(0.469062 -0.0154062 0)
(0.451229 -0.0162291 0)
(0.51348 -0.0692644 0)
(0.437469 -0.0665438 0)
(0.341014 -0.0340312 0)
(0.269719 -0.0161848 0)
(0.231001 -0.0083897 0)
(0.209397 -0.0045023 0)
(0.195993 -0.00258699 0)
(0.186574 -0.00178332 0)
(0.178662 -0.00155399 0)
(0.170778 -0.001599 0)
(-0.000484829 0.000473782 0)
(-0.00242783 0.000712898 0)
(-0.00436253 0.000587782 0)
(-0.00533414 0.000282385 0)
(-0.00479323 -6.28037e-05 0)
(-0.00270521 -0.000378216 0)
(0.00070379 -0.000627649 0)
(0.00509877 -0.000798666 0)
(0.0101214 -0.000894204 0)
(0.0154398 -0.000925059 0)
(0.020774 -0.000905115 0)
(0.0259063 -0.000848478 0)
(0.0306801 -0.000767964 0)
(0.0349942 -0.000674333 0)
(0.0387937 -0.000576018 0)
(0.042061 -0.000479248 0)
(0.0448056 -0.000388248 0)
(0.0470571 -0.000305657 0)
(0.0488574 -0.000232808 0)
(0.0502555 -0.000170149 0)
(0.0513036 -0.000117435 0)
(0.0520534 -7.40575e-05 0)
(0.0525544 -3.91147e-05 0)
(0.0528523 -1.16449e-05 0)
(0.0529884 9.38529e-06 0)
(0.0529988 2.49258e-05 0)
(0.052915 3.5903e-05 0)
(0.0527632 4.31116e-05 0)
(0.0525657 4.7296e-05 0)
(0.0523402 4.9064e-05 0)
(0.0521011 4.89781e-05 0)
(0.0518594 4.74776e-05 0)
(0.0516234 4.49728e-05 0)
(0.0513991 4.17668e-05 0)
(0.0511905 3.81505e-05 0)
(-0.000820321 0.0024777 0)
(-0.0042861 0.00383874 0)
(-0.00699691 0.00268838 0)
(-0.00724782 0.000158538 0)
(-0.00412015 -0.00278914 0)
(0.00236258 -0.00553549 0)
(0.0116805 -0.00774666 0)
(0.0230959 -0.00929379 0)
(0.0358266 -0.0101782 0)
(0.0491485 -0.0104746 0)
(0.0624483 -0.0102918 0)
(0.0752444 -0.00974734 0)
(0.0871858 -0.00895294 0)
(0.0980402 -0.00800609 0)
(0.107677 -0.00698703 0)
(0.116046 -0.0059581 0)
(0.123161 -0.0049652 0)
(0.12908 -0.00403979 0)
(0.133894 -0.00320153 0)
(0.137711 -0.0024606 0)
(0.140649 -0.00182013 0)
(0.142828 -0.00127807 0)
(0.144363 -0.000828825 0)
(0.145365 -0.000464624 0)
(0.145933 -0.000176447 0)
(0.146158 4.51779e-05 0)
(0.146117 0.000209685 0)
(0.145879 0.000326076 0)
(0.145501 0.000402721 0)
(0.145029 0.000447193 0)
(0.144503 0.000466233 0)
(0.143953 0.000465725 0)
(0.143402 0.000450731 0)
(0.142867 0.000425538 0)
(0.142362 0.000393708 0)
(-0.000911018 0.0049889 0)
(-0.0043184 0.00697866 0)
(-0.00569065 0.00358126 0)
(-0.00320941 -0.0026095 0)
(0.00391145 -0.00954511 0)
(0.0153712 -0.0158964 0)
(0.0303429 -0.0209504 0)
(0.0477998 -0.0244396 0)
(0.0667118 -0.0263817 0)
(0.0861541 -0.0269546 0)
(0.105359 -0.0264104 0)
(0.123728 -0.0250194 0)
(0.140832 -0.0230378 0)
(0.156386 -0.0206905 0)
(0.170232 -0.0181637 0)
(0.182312 -0.0156042 0)
(0.192647 -0.0131214 0)
(0.201316 -0.0107924 0)
(0.208437 -0.00866677 0)
(0.214155 -0.00677218 0)
(0.218626 -0.0051193 0)
(0.222011 -0.00370616 0)
(0.224468 -0.00252189 0)
(0.226146 -0.00154967 0)
(0.227185 -0.000769201 0)
(0.22771 -0.000158466 0)
(0.227831 0.000304915 0)
(0.227645 0.000642708 0)
(0.227234 0.000875471 0)
(0.226669 0.00102207 0)
(0.226005 0.00109956 0)
(0.225288 0.00112295 0)
(0.224554 0.0011054 0)
(0.22383 0.00105809 0)
(0.223136 0.000990526 0)
(-0.00092898 0.00736644 0)
(-0.00322265 0.00878554 0)
(-0.00161637 0.00165298 0)
(0.00536852 -0.00950851 0)
(0.017906 -0.0213753 0)
(0.0351498 -0.0318986 0)
(0.0558825 -0.0400456 0)
(0.0788346 -0.0454861 0)
(0.102848 -0.0483233 0)
(0.126946 -0.0488938 0)
(0.150355 -0.0476332 0)
(0.172494 -0.044994 0)
(0.19296 -0.0413982 0)
(0.211496 -0.0372135 0)
(0.227975 -0.032744 0)
(0.242364 -0.0282298 0)
(0.25471 -0.0238511 0)
(0.265114 -0.019736 0)
(0.273716 -0.0159684 0)
(0.280683 -0.0125963 0)
(0.286192 -0.00963971 0)
(0.290424 -0.00709734 0)
(0.293559 -0.0049528 0)
(0.295766 -0.00317922 0)
(0.297205 -0.00174331 0)
(0.298018 -0.000608316 0)
(0.298335 0.000263579 0)
(0.298268 0.000909646 0)
(0.297915 0.00136539 0)
(0.297357 0.0016638 0)
(0.296665 0.00183484 0)
(0.295892 0.00190526 0)
(0.295083 0.00189851 0)
(0.294273 0.00183485 0)
(0.293486 0.00173145 0)
(-0.00092713 0.0090636 0)
(-0.00108939 0.00785664 0)
(0.00531221 -0.00490332 0)
(0.0187702 -0.0221956 0)
(0.0382738 -0.0393972 0)
(0.0621692 -0.0539414 0)
(0.0888053 -0.0647045 0)
(0.116751 -0.0714749 0)
(0.144853 -0.0745606 0)
(0.172233 -0.0745234 0)
(0.198247 -0.0720128 0)
(0.222451 -0.0676702 0)
(0.244561 -0.0620783 0)
(0.264424 -0.055737 0)
(0.281991 -0.0490562 0)
(0.29729 -0.0423582 0)
(0.310411 -0.0358851 0)
(0.321485 -0.0298089 0)
(0.330674 -0.0242426 0)
(0.338155 -0.0192513 0)
(0.344115 -0.0148622 0)
(0.348743 -0.0110739 0)
(0.352219 -0.0078636 0)
(0.354718 -0.00519419 0)
(0.356401 -0.00301915 0)
(0.357416 -0.00128679 0)
(0.357895 5.65515e-05 0)
(0.357955 0.00106409 0)
(0.357697 0.00178695 0)
(0.357208 0.00227293 0)
(0.35656 0.00256578 0)
(0.355813 0.00270483 0)
(0.355015 0.00272479 0)
(0.354203 0.00265581 0)
(0.353405 0.00252366 0)
(-0.000785216 0.00957305 0)
(0.00282699 0.00256463 0)
(0.0166032 -0.0182216 0)
(0.0389796 -0.0425668 0)
(0.0670607 -0.0648473 0)
(0.0982521 -0.0824858 0)
(0.130594 -0.0946736 0)
(0.162693 -0.101576 0)
(0.1936 -0.103846 0)
(0.222699 -0.102324 0)
(0.249611 -0.0978831 0)
(0.274129 -0.0913352 0)
(0.296164 -0.0833948 0)
(0.315718 -0.0746629 0)
(0.332856 -0.0656259 0)
(0.34769 -0.0566628 0)
(0.360364 -0.0480566 0)
(0.371046 -0.0400071 0)
(0.379913 -0.0326446 0)
(0.38715 -0.0260427 0)
(0.392941 -0.0202305 0)
(0.397466 -0.0152029 0)
(0.400898 -0.0109295 0)
(0.4034 -0.00736228 0)
(0.405121 -0.0044419 0)
(0.4062 -0.00210244 0)
(0.40676 -0.00027536 0)
(0.406911 0.0011076 0)
(0.406746 0.00211227 0)
(0.40635 0.00280054 0)
(0.405791 0.00322936 0)
(0.405126 0.0034502 0)
(0.404401 0.00350875 0)
(0.403655 0.00344492 0)
(0.402914 0.00329301 0)
(-0.000150298 0.00820993 0)
(0.0107014 -0.00962073 0)
(0.0358786 -0.0412372 0)
(0.0700975 -0.0727667 0)
(0.107996 -0.0987346 0)
(0.146336 -0.117517 0)
(0.183319 -0.12917 0)
(0.217968 -0.134496 0)
(0.249806 -0.134579 0)
(0.278654 -0.130546 0)
(0.304509 -0.123452 0)
(0.327464 -0.11423 0)
(0.347666 -0.103673 0)
(0.365293 -0.0924328 0)
(0.380538 -0.0810317 0)
(0.393599 -0.0698704 0)
(0.404676 -0.0592446 0)
(0.413964 -0.0493602 0)
(0.421653 -0.0403487 0)
(0.427923 -0.032281 0)
(0.432946 -0.0251802 0)
(0.436883 -0.019033 0)
(0.439885 -0.0137991 0)
(0.442091 -0.00941906 0)
(0.443628 -0.00582134 0)
(0.444613 -0.00292717 0)
(0.445148 -0.000654932 0)
(0.445327 0.00107664 0)
(0.44523 0.00234606 0)
(0.444927 0.00322737 0)
(0.444476 0.003789 0)
(0.443928 0.00409302 0)
(0.443322 0.0041948 0)
(0.442692 0.00414293 0)
(0.442061 0.00397934 0)
(0.00194486 0.00244193 0)
(0.0278075 -0.03404 0)
(0.0703542 -0.0782982 0)
(0.119004 -0.114846 0)
(0.166379 -0.14115 0)
(0.209923 -0.157856 0)
(0.248936 -0.166326 0)
(0.283368 -0.168068 0)
(0.313461 -0.164534 0)
(0.339586 -0.157031 0)
(0.362151 -0.146697 0)
(0.381554 -0.134495 0)
(0.398167 -0.121226 0)
(0.412324 -0.107536 0)
(0.424327 -0.0939329 0)
(0.434443 -0.0808025 0)
(0.44291 -0.0684237 0)
(0.449937 -0.056986 0)
(0.455709 -0.0466052 0)
(0.460392 -0.0373375 0)
(0.464132 -0.0291925 0)
(0.467059 -0.0221437 0)
(0.469292 -0.0161389 0)
(0.470936 -0.0111071 0)
(0.472085 -0.00696534 0)
(0.472825 -0.00362421 0)
(0.473232 -0.000991516 0)
(0.473372 0.0010242 0)
(0.473306 0.00251124 0)
(0.473083 0.00355299 0)
(0.472747 0.00422669 0)
(0.472336 0.00460264 0)
(0.471879 0.00474374 0)
(0.471401 0.00470541 0)
(0.47092 0.00453568 0)
(0.014592 -0.0240575 0)
(0.0687814 -0.0842422 0)
(0.134088 -0.135187 0)
(0.195807 -0.169197 0)
(0.24816 -0.18978 0)
(0.291796 -0.200162 0)
(0.3281 -0.202639 0)
(0.358219 -0.199013 0)
(0.383127 -0.190787 0)
(0.403671 -0.179233 0)
(0.42058 -0.165422 0)
(0.434474 -0.150248 0)
(0.44587 -0.134443 0)
(0.455203 -0.118594 0)
(0.462833 -0.103152 0)
(0.469059 -0.088455 0)
(0.474123 -0.0747402 0)
(0.478226 -0.0621618 0)
(0.481529 -0.0508062 0)
(0.484166 -0.0407054 0)
(0.486243 -0.0318491 0)
(0.487851 -0.0241948 0)
(0.489066 -0.0176769 0)
(0.48995 -0.0122135 0)
(0.490559 -0.00771217 0)
(0.490941 -0.0040753 0)
(0.491137 -0.00120339 0)
(0.491185 0.00100179 0)
(0.491117 0.0026348 0)
(0.49096 0.00378494 0)
(0.49074 0.004535 0)
(0.490476 0.00496048 0)
(0.490187 0.00512913 0)
(0.489886 0.00510079 0)
(0.489584 0.00492749 0)
(0.0948944 -0.0973692 0)
(0.177462 -0.170903 0)
(0.251734 -0.208396 0)
(0.311541 -0.22807 0)
(0.356772 -0.236792 0)
(0.391464 -0.237733 0)
(0.4184 -0.232693 0)
(0.439262 -0.223038 0)
(0.45527 -0.20995 0)
(0.467413 -0.194469 0)
(0.476507 -0.177494 0)
(0.483224 -0.159782 0)
(0.488112 -0.141954 0)
(0.491615 -0.124499 0)
(0.494085 -0.107789 0)
(0.495799 -0.0920934 0)
(0.496971 -0.0775925 0)
(0.497759 -0.0643939 0)
(0.498281 -0.0525464 0)
(0.498619 -0.0420525 0)
(0.498833 -0.0328793 0)
(0.49896 -0.0249673 0)
(0.499027 -0.0182383 0)
(0.499051 -0.012601 0)
(0.499042 -0.00795674 0)
(0.499007 -0.00420279 0)
(0.498951 -0.00123605 0)
(0.498878 0.00104457 0)
(0.498792 0.00273601 0)
(0.498696 0.00392968 0)
(0.498592 0.00471032 0)
(0.498483 0.00515532 0)
(0.498373 0.0053342 0)
(0.498264 0.00530852 0)
(0.498157 0.0051319 0)
(0.3913 -0.201981 0)
(0.410019 -0.244452 0)
(0.435807 -0.262164 0)
(0.463286 -0.268876 0)
(0.485104 -0.267993 0)
(0.501147 -0.261347 0)
(0.512447 -0.250246 0)
(0.519807 -0.235767 0)
(0.523958 -0.218876 0)
(0.525611 -0.200442 0)
(0.525409 -0.181221 0)
(0.523909 -0.161847 0)
(0.521565 -0.14283 0)
(0.518745 -0.124564 0)
(0.515729 -0.107335 0)
(0.512725 -0.0913408 0)
(0.509878 -0.0767004 0)
(0.50728 -0.0634725 0)
(0.504984 -0.0516673 0)
(0.503011 -0.0412581 0)
(0.501358 -0.0321902 0)
(0.500009 -0.0243894 0)
(0.498935 -0.0177674 0)
(0.498106 -0.0122273 0)
(0.497485 -0.0076672 0)
(0.49704 -0.00398368 0)
(0.496738 -0.00107402 0)
(0.49655 0.00116161 0)
(0.496452 0.00281853 0)
(0.49642 0.00398637 0)
(0.496438 0.00474819 0)
(0.496491 0.00517982 0)
(0.496566 0.00534948 0)
(0.496655 0.00531763 0)
(0.49675 0.00513705 0)
(0.636942 -0.19964 0)
(0.625539 -0.249825 0)
(0.616749 -0.271243 0)
(0.612892 -0.277664 0)
(0.609232 -0.274691 0)
(0.604282 -0.265275 0)
(0.597915 -0.251406 0)
(0.590217 -0.23452 0)
(0.581426 -0.215721 0)
(0.571899 -0.195901 0)
(0.562025 -0.175781 0)
(0.552164 -0.155931 0)
(0.542617 -0.136785 0)
(0.533616 -0.118658 0)
(0.52533 -0.101766 0)
(0.517861 -0.0862404 0)
(0.511262 -0.0721465 0)
(0.505541 -0.0594997 0)
(0.500674 -0.0482767 0)
(0.496612 -0.0384261 0)
(0.493289 -0.0298767 0)
(0.490631 -0.0225438 0)
(0.488557 -0.0163341 0)
(0.486987 -0.0111492 0)
(0.485845 -0.00688903 0)
(0.485059 -0.00345334 0)
(0.484563 -0.000744174 0)
(0.484299 0.00133298 0)
(0.484214 0.00286791 0)
(0.484265 0.00394479 0)
(0.484416 0.00464153 0)
(0.484634 0.00502924 0)
(0.484895 0.00517187 0)
(0.48518 0.00512619 0)
(0.485473 0.00494175 0)
(0.809651 -0.185261 0)
(0.785075 -0.229724 0)
(0.757155 -0.252829 0)
(0.731513 -0.261162 0)
(0.707458 -0.259235 0)
(0.684346 -0.250142 0)
(0.662025 -0.236235 0)
(0.640452 -0.219265 0)
(0.619678 -0.200535 0)
(0.599852 -0.181026 0)
(0.581164 -0.161476 0)
(0.563791 -0.142431 0)
(0.547872 -0.124276 0)
(0.533496 -0.107272 0)
(0.5207 -0.091576 0)
(0.509473 -0.0772705 0)
(0.499766 -0.0643792 0)
(0.491497 -0.0528841 0)
(0.484564 -0.0427376 0)
(0.478848 -0.0338722 0)
(0.474224 -0.0262073 0)
(0.470562 -0.0196547 0)
(0.467738 -0.0141215 0)
(0.46563 -0.00951346 0)
(0.464124 -0.00573657 0)
(0.463117 -0.00269861 0)
(0.462516 -0.000310241 0)
(0.462236 0.00151395 0)
(0.462207 0.00285475 0)
(0.462365 0.00378765 0)
(0.462658 0.00438242 0)
(0.463043 0.00470263 0)
(0.463484 0.00480552 0)
(0.463953 0.00474182 0)
(0.464429 0.0045559 0)
(0.908212 -0.162862 0)
(0.877495 -0.198238 0)
(0.840344 -0.219289 0)
(0.802231 -0.228133 0)
(0.764827 -0.227522 0)
(0.728769 -0.219944 0)
(0.694472 -0.207575 0)
(0.662169 -0.19218 0)
(0.632006 -0.175112 0)
(0.6041 -0.157378 0)
(0.578545 -0.139714 0)
(0.555394 -0.122634 0)
(0.534657 -0.106486 0)
(0.516294 -0.091482 0)
(0.500223 -0.0777397 0)
(0.486327 -0.0653037 0)
(0.474464 -0.0541689 0)
(0.464471 -0.0442968 0)
(0.456175 -0.0356267 0)
(0.4494 -0.0280848 0)
(0.443968 -0.0215897 0)
(0.43971 -0.0160563 0)
(0.436463 -0.0113989 0)
(0.434073 -0.00753235 0)
(0.432403 -0.00437338 0)
(0.431324 -0.00184153 0)
(0.430724 0.000140335 0)
(0.430503 0.0016455 0)
(0.430573 0.00274292 0)
(0.43086 0.00349689 0)
(0.431302 0.00396665 0)
(0.431846 0.0042062 0)
(0.43245 0.00426403 0)
(0.43308 0.00418322 0)
(0.433712 0.00400131 0)
(0.937214 -0.13601 0)
(0.903321 -0.161753 0)
(0.862202 -0.178344 0)
(0.818186 -0.185918 0)
(0.773734 -0.185865 0)
(0.730304 -0.179889 0)
(0.688853 -0.169704 0)
(0.649974 -0.156826 0)
(0.614006 -0.142473 0)
(0.581133 -0.127566 0)
(0.551426 -0.11277 0)
(0.524873 -0.098542 0)
(0.501394 -0.0851738 0)
(0.480853 -0.0728353 0)
(0.463076 -0.0616079 0)
(0.447864 -0.0515107 0)
(0.435001 -0.0425223 0)
(0.424263 -0.034595 0)
(0.415427 -0.0276662 0)
(0.408274 -0.021665 0)
(0.402595 -0.016517 0)
(0.39819 -0.0121475 0)
(0.394877 -0.0084828 0)
(0.392484 -0.00545145 0)
(0.390857 -0.00298472 0)
(0.389859 -0.0010168 0)
(0.389364 0.000514717 0)
(0.389266 0.00166889 0)
(0.389471 0.00250094 0)
(0.389897 0.00306233 0)
(0.390479 0.00340028 0)
(0.39116 0.00355787 0)
(0.391896 0.00357368 0)
(0.39265 0.00348202 0)
(0.393397 0.00331269 0)
(0.901115 -0.106135 0)
(0.865817 -0.123104 0)
(0.823906 -0.134544 0)
(0.778558 -0.1399 0)
(0.73218 -0.139752 0)
(0.686497 -0.135152 0)
(0.642742 -0.127308 0)
(0.601731 -0.117365 0)
(0.563952 -0.106284 0)
(0.529651 -0.0948035 0)
(0.498905 -0.0834562 0)
(0.471664 -0.0726015 0)
(0.447792 -0.0624629 0)
(0.427095 -0.0531621 0)
(0.409339 -0.0447495 0)
(0.394275 -0.0372274 0)
(0.381643 -0.0305673 0)
(0.371187 -0.0247229 0)
(0.362657 -0.0196379 0)
(0.355817 -0.0152525 0)
(0.350444 -0.0115057 0)
(0.346332 -0.0083379 0)
(0.343292 -0.00569151 0)
(0.341151 -0.00351181 0)
(0.339754 -0.00174651 0)
(0.338962 -0.000346434 0)
(0.338653 0.000735142 0)
(0.338719 0.00154178 0)
(0.339069 0.00211453 0)
(0.339623 0.00249108 0)
(0.340316 0.00270644 0)
(0.341093 0.00279201 0)
(0.341911 0.00277638 0)
(0.342736 0.00268445 0)
(0.343542 0.00253831 0)
(0.803112 -0.0745818 0)
(0.768484 -0.0844369 0)
(0.728608 -0.0912281 0)
(0.685711 -0.0943073 0)
(0.641798 -0.0938597 0)
(0.598489 -0.0904867 0)
(0.557015 -0.0849576 0)
(0.518223 -0.0780374 0)
(0.482631 -0.0703831 0)
(0.450496 -0.0625045 0)
(0.421879 -0.0547676 0)
(0.396708 -0.0474146 0)
(0.374817 -0.0405911 0)
(0.355983 -0.034371 0)
(0.339952 -0.028779 0)
(0.326458 -0.0238075 0)
(0.315234 -0.0194291 0)
(0.306023 -0.0156057 0)
(0.29858 -0.0122946 0)
(0.292674 -0.0094512 0)
(0.288096 -0.00703207 0)
(0.28465 -0.00499528 0)
(0.282161 -0.00330136 0)
(0.280469 -0.00191292 0)
(0.279433 -0.000795074 0)
(0.278926 8.51764e-05 0)
(0.278837 0.000758555 0)
(0.279069 0.00125405 0)
(0.279539 0.00159844 0)
(0.280177 0.00181672 0)
(0.280924 0.0019316 0)
(0.281733 0.00196391 0)
(0.282564 0.0019321 0)
(0.283387 0.00185271 0)
(0.284182 0.00173987 0)
(0.645604 -0.0437215 0)
(0.614764 -0.0484904 0)
(0.580294 -0.0517704 0)
(0.543676 -0.0530963 0)
(0.50642 -0.0525157 0)
(0.469836 -0.0503458 0)
(0.434948 -0.0470133 0)
(0.402473 -0.0429485 0)
(0.372843 -0.0385217 0)
(0.346257 -0.0340181 0)
(0.322743 -0.0296387 0)
(0.302208 -0.0255132 0)
(0.28448 -0.0217154 0)
(0.269343 -0.018279 0)
(0.256558 -0.0152105 0)
(0.245883 -0.0124994 0)
(0.23708 -0.0101253 0)
(0.229923 -0.00806303 0)
(0.224202 -0.0062857 0)
(0.219722 -0.00476653 0)
(0.216304 -0.00347996 0)
(0.213789 -0.00240185 0)
(0.21203 -0.00150986 0)
(0.210898 -0.000783094 0)
(0.210277 -0.000202224 0)
(0.210065 0.000250898 0)
(0.210171 0.000593083 0)
(0.210519 0.000840172 0)
(0.211042 0.00100673 0)
(0.211683 0.00110637 0)
(0.212397 0.00115141 0)
(0.213145 0.0011532 0)
(0.213898 0.00112169 0)
(0.214633 0.00106587 0)
(0.215333 0.000993362 0)
(0.431068 -0.0179022 0)
(0.408303 -0.0195501 0)
(0.383429 -0.0206296 0)
(0.35736 -0.0209411 0)
(0.331092 -0.0205122 0)
(0.305513 -0.019481 0)
(0.281311 -0.018026 0)
(0.25896 -0.016321 0)
(0.238728 -0.0145116 0)
(0.220719 -0.0127062 0)
(0.20492 -0.0109781 0)
(0.191233 -0.00937188 0)
(0.179514 -0.00791051 0)
(0.16959 -0.00660181 0)
(0.16128 -0.00544384 0)
(0.154403 -0.00442907 0)
(0.148789 -0.00354687 0)
(0.144275 -0.0027857 0)
(0.140714 -0.00213376 0)
(0.137971 -0.00158003 0)
(0.135925 -0.001114 0)
(0.134466 -0.000726301 0)
(0.133497 -0.00040806 0)
(0.132928 -0.000151423 0)
(0.132685 5.11772e-05 0)
(0.132698 0.000206445 0)
(0.132908 0.000320966 0)
(0.133264 0.000400539 0)
(0.133722 0.000450898 0)
(0.134246 0.000476981 0)
(0.134805 0.00048367 0)
(0.135375 0.000475015 0)
(0.135938 0.000454999 0)
(0.136478 0.000426743 0)
(0.136987 0.000393321 0)
(0.16217 -0.00174484 0)
(0.152638 -0.00187611 0)
(0.142369 -0.00193375 0)
(0.131744 -0.00190736 0)
(0.121173 -0.00181078 0)
(0.11101 -0.00166502 0)
(0.101516 -0.00149121 0)
(0.0928568 -0.00130723 0)
(0.0851141 -0.001126 0)
(0.0783042 -0.000955716 0)
(0.0723988 -0.000800805 0)
(0.0673409 -0.0006631 0)
(0.0630585 -0.000542714 0)
(0.0594731 -0.00043876 0)
(0.056506 -0.000349791 0)
(0.0540818 -0.000274168 0)
(0.0521304 -0.000210234 0)
(0.0505877 -0.000156464 0)
(0.0493957 -0.000111484 0)
(0.0485025 -7.41093e-05 0)
(0.0478615 -4.33147e-05 0)
(0.0474313 -1.82242e-05 0)
(0.0471749 1.91408e-06 0)
(0.0470598 1.77544e-05 0)
(0.047057 2.98664e-05 0)
(0.0471413 3.87626e-05 0)
(0.0472908 4.48962e-05 0)
(0.0474867 4.86871e-05 0)
(0.047713 5.05096e-05 0)
(0.0479565 5.07173e-05 0)
(0.0482063 4.96232e-05 0)
(0.048454 4.75234e-05 0)
(0.0486931 4.4673e-05 0)
(0.0489187 4.13112e-05 0)
(0.0491277 3.76351e-05 0)
(0.0509998 3.43211e-05 0)
(0.0508283 3.0479e-05 0)
(0.0506759 2.67406e-05 0)
(0.0505418 2.32389e-05 0)
(0.0504248 2.00308e-05 0)
(0.050323 1.72027e-05 0)
(0.0502343 1.477e-05 0)
(0.0501564 1.27868e-05 0)
(0.0500869 1.1246e-05 0)
(0.0500232 1.01868e-05 0)
(0.141893 0.000358168 0)
(0.141465 0.000321256 0)
(0.141081 0.000284828 0)
(0.140739 0.000250291 0)
(0.140437 0.00021872 0)
(0.140171 0.000190873 0)
(0.139937 0.00016731 0)
(0.13973 0.00014839 0)
(0.139543 0.00013439 0)
(0.13937 0.000125487 0)
(0.222486 0.00091052 0)
(0.221886 0.000824491 0)
(0.221342 0.000737521 0)
(0.220854 0.000653634 0)
(0.220419 0.000575865 0)
(0.220033 0.000506527 0)
(0.219691 0.000447271 0)
(0.219386 0.00039933 0)
(0.219109 0.000363565 0)
(0.218852 0.000340685 0)
(0.292741 0.00160269 0)
(0.292047 0.00146034 0)
(0.291413 0.00131391 0)
(0.290839 0.00117089 0)
(0.290324 0.00103711 0)
(0.289865 0.00091696 0)
(0.289455 0.000813732 0)
(0.289087 0.000729836 0)
(0.288752 0.000667094 0)
(0.28844 0.000626925 0)
(0.352641 0.00234999 0)
(0.351926 0.00215272 0)
(0.351266 0.00194635 0)
(0.350666 0.00174248 0)
(0.350124 0.00155015 0)
(0.349638 0.00137627 0)
(0.349201 0.00122608 0)
(0.348807 0.00110351 0)
(0.348447 0.00101152 0)
(0.348111 0.000952492 0)
(0.402199 0.003082 0)
(0.401524 0.00283598 0)
(0.400897 0.00257464 0)
(0.400324 0.00231376 0)
(0.399804 0.00206575 0)
(0.399336 0.00184023 0)
(0.398913 0.00164451 0)
(0.398531 0.00148413 0)
(0.39818 0.00136338 0)
(0.397852 0.00128568 0)
(0.441448 0.00373966 0)
(0.440867 0.00345366 0)
(0.440325 0.00314575 0)
(0.439826 0.00283565 0)
(0.439372 0.00253895 0)
(0.438962 0.00226781 0)
(0.43859 0.00203156 0)
(0.438252 0.00183733 0)
(0.437942 0.00169066 0)
(0.437651 0.00159605 0)
(0.470452 0.0042755 0)
(0.470006 0.00395922 0)
(0.469589 0.00361516 0)
(0.469204 0.00326626 0)
(0.468852 0.00293079 0)
(0.468533 0.00262304 0)
(0.468243 0.00235406 0)
(0.467979 0.00213236 0)
(0.467737 0.00196459 0)
(0.467509 0.00185617 0)
(0.48929 0.00465372 0)
(0.489009 0.00431696 0)
(0.488746 0.00394816 0)
(0.488504 0.00357253 0)
(0.488281 0.00321019 0)
(0.488079 0.00287696 0)
(0.487896 0.00258512 0)
(0.487728 0.00234418 0)
(0.487573 0.00216161 0)
(0.487428 0.00204352 0)
(0.498055 0.00485035 0)
(0.497958 0.00450267 0)
(0.497868 0.00412102 0)
(0.497785 0.00373164 0)
(0.497709 0.00335554 0)
(0.49764 0.00300929 0)
(0.497577 0.00270579 0)
(0.497519 0.00245506 0)
(0.497466 0.00226499 0)
(0.497415 0.00214208 0)
(0.496846 0.00485306 0)
(0.49694 0.00450396 0)
(0.497029 0.00412158 0)
(0.497112 0.00373189 0)
(0.497188 0.00335574 0)
(0.497257 0.00300958 0)
(0.49732 0.00270626 0)
(0.497377 0.00245577 0)
(0.497429 0.00226599 0)
(0.497478 0.00214345 0)
(0.485762 0.00466117 0)
(0.486041 0.00432048 0)
(0.486303 0.00394967 0)
(0.486546 0.0035732 0)
(0.486769 0.00321073 0)
(0.486971 0.00287778 0)
(0.487155 0.00258647 0)
(0.487322 0.00234621 0)
(0.487475 0.00216448 0)
(0.487619 0.00204743 0)
(0.464896 0.00428587 0)
(0.465341 0.00396401 0)
(0.465759 0.00361711 0)
(0.466144 0.0032671 0)
(0.466497 0.00293152 0)
(0.466816 0.00262426 0)
(0.467106 0.00235609 0)
(0.467369 0.00213544 0)
(0.467611 0.00196893 0)
(0.467838 0.00186208 0)
(0.434325 0.00375063 0)
(0.434908 0.00345849 0)
(0.435451 0.00314758 0)
(0.43595 0.00283638 0)
(0.436405 0.00253972 0)
(0.436816 0.00226923 0)
(0.437188 0.00203401 0)
(0.437526 0.00184103 0)
(0.437836 0.00169588 0)
(0.438126 0.00160313 0)
(0.394115 0.00309144 0)
(0.394792 0.00283983 0)
(0.39542 0.00257592 0)
(0.395994 0.00231422 0)
(0.396515 0.00206646 0)
(0.396984 0.00184171 0)
(0.397407 0.0016471 0)
(0.39779 0.00148802 0)
(0.398141 0.00136883 0)
(0.39847 0.00129299 0)
(0.34431 0.00235652 0)
(0.345028 0.00215511 0)
(0.345689 0.0019469 0)
(0.346291 0.00174272 0)
(0.346833 0.00155073 0)
(0.34732 0.00137773 0)
(0.347757 0.00122852 0)
(0.348152 0.00110718 0)
(0.348513 0.00101648 0)
(0.34885 0.000959163 0)
(0.284932 0.00160594 0)
(0.285628 0.00146103 0)
(0.286263 0.00131373 0)
(0.286838 0.00117069 0)
(0.287353 0.00103745 0)
(0.287813 0.000917996 0)
(0.288223 0.000815642 0)
(0.288593 0.000732625 0)
(0.288929 0.000670946 0)
(0.289243 0.000631974 0)
(0.215986 0.000910832 0)
(0.216587 0.000823674 0)
(0.217132 0.000736504 0)
(0.21762 0.000652815 0)
(0.218055 0.000575541 0)
(0.218442 0.000506721 0)
(0.218784 0.000448087 0)
(0.219091 0.000400724 0)
(0.219369 0.000365661 0)
(0.219628 0.000343528 0)
(0.137457 0.000356944 0)
(0.137885 0.000319834 0)
(0.138269 0.000283393 0)
(0.138611 0.000249117 0)
(0.138913 0.000217763 0)
(0.139179 0.000190279 0)
(0.139414 0.000166967 0)
(0.139622 0.000148427 0)
(0.13981 0.000134705 0)
(0.139984 0.000126245 0)
(0.0493183 3.38269e-05 0)
(0.0494897 3.00275e-05 0)
(0.0496419 2.63653e-05 0)
(0.0497758 2.29309e-05 0)
(0.0498929 1.98072e-05 0)
(0.0499948 1.70426e-05 0)
(0.0500838 1.46859e-05 0)
(0.0501621 1.276e-05 0)
(0.0502321 1.12902e-05 0)
(0.0502965 1.02846e-05 0)
(0.0499627 9.59118e-06 0)
(0.0499026 9.4969e-06 0)
(0.0498403 9.89015e-06 0)
(0.0497727 1.08191e-05 0)
(0.0496967 1.22856e-05 0)
(0.0496089 1.43594e-05 0)
(0.0495056 1.70696e-05 0)
(0.0493826 2.05185e-05 0)
(0.049235 2.47735e-05 0)
(0.0490572 2.99811e-05 0)
(0.0488429 3.62599e-05 0)
(0.0485844 4.38135e-05 0)
(0.0482729 5.28278e-05 0)
(0.0478977 6.35824e-05 0)
(0.0474466 7.63537e-05 0)
(0.0469048 9.15272e-05 0)
(0.0462549 0.000109512 0)
(0.0454764 0.000130855 0)
(0.044545 0.000156173 0)
(0.043432 0.000186273 0)
(0.0421035 0.000222095 0)
(0.0405198 0.000264801 0)
(0.0386353 0.000315676 0)
(0.0363987 0.000376039 0)
(0.0337551 0.000446821 0)
(0.0306512 0.00052781 0)
(0.0270462 0.000616181 0)
(0.0229299 0.000704282 0)
(0.0183526 0.000776734 0)
(0.0134658 0.000807399 0)
(0.00856871 0.000758371 0)
(0.00414244 0.000583411 0)
(0.000827356 0.000243458 0)
(-0.00077915 -0.000226661 0)
(-0.000522405 -0.000525415 0)
(0.139206 0.000121869 0)
(0.139042 0.000123713 0)
(0.138873 0.000131283 0)
(0.13869 0.000144909 0)
(0.138485 0.000165076 0)
(0.138249 0.000192408 0)
(0.137973 0.00022775 0)
(0.137645 0.000272159 0)
(0.137253 0.000326989 0)
(0.136781 0.000393896 0)
(0.136213 0.000474921 0)
(0.135528 0.000572518 0)
(0.134702 0.000689651 0)
(0.133708 0.000829847 0)
(0.132511 0.000997315 0)
(0.131072 0.00119704 0)
(0.129345 0.00143492 0)
(0.127274 0.00171791 0)
(0.124793 0.00205417 0)
(0.121826 0.00245313 0)
(0.118282 0.00292544 0)
(0.114058 0.0034825 0)
(0.109036 0.00413534 0)
(0.103084 0.00489211 0)
(0.0960696 0.00575335 0)
(0.0878642 0.00670394 0)
(0.0783756 0.00770039 0)
(0.0675876 0.00865324 0)
(0.0556245 0.00940693 0)
(0.0428352 0.00972567 0)
(0.0298825 0.00930325 0)
(0.0178007 0.0078287 0)
(0.00794593 0.00515746 0)
(0.00170511 0.0016885 0)
(-0.00029212 -0.000860121 0)
(0.218606 0.000331274 0)
(0.218362 0.000335993 0)
(0.218109 0.000355593 0)
(0.217836 0.000391101 0)
(0.217532 0.000443826 0)
(0.217183 0.000515546 0)
(0.216775 0.000608512 0)
(0.216293 0.000725643 0)
(0.215716 0.00087055 0)
(0.215024 0.00104775 0)
(0.21419 0.00126271 0)
(0.213185 0.00152211 0)
(0.211973 0.00183395 0)
(0.210512 0.00220783 0)
(0.208753 0.00265514 0)
(0.206637 0.00318942 0)
(0.204092 0.00382661 0)
(0.201037 0.00458545 0)
(0.197373 0.00548764 0)
(0.192984 0.006558 0)
(0.187737 0.00782393 0)
(0.181474 0.00931413 0)
(0.174021 0.0110552 0)
(0.165183 0.0130654 0)
(0.154756 0.0153427 0)
(0.142547 0.0178455 0)
(0.128401 0.020464 0)
(0.11226 0.0229802 0)
(0.0942424 0.0250246 0)
(0.0747528 0.0260476 0)
(0.0546072 0.0253427 0)
(0.0351316 0.0221889 0)
(0.0181843 0.0162059 0)
(0.00601432 0.00806296 0)
(0.000196097 0.000715492 0)
(0.28814 0.000610609 0)
(0.287843 0.000619442 0)
(0.287535 0.000654969 0)
(0.287204 0.000719123 0)
(0.286836 0.000814442 0)
(0.286415 0.000944202 0)
(0.285924 0.00111265 0)
(0.285344 0.00132514 0)
(0.284652 0.00158843 0)
(0.283821 0.0019108 0)
(0.282821 0.00230245 0)
(0.281614 0.00277572 0)
(0.280159 0.0033455 0)
(0.278404 0.0040296 0)
(0.276287 0.00484927 0)
(0.273737 0.00582972 0)
(0.270667 0.00700065 0)
(0.266973 0.00839688 0)
(0.262536 0.0100587 0)
(0.257212 0.012032 0)
(0.250832 0.0143674 0)
(0.243202 0.0171176 0)
(0.234098 0.020332 0)
(0.223273 0.0240458 0)
(0.210457 0.0282604 0)
(0.195379 0.0329115 0)
(0.177795 0.0378213 0)
(0.157542 0.042632 0)
(0.134626 0.0467307 0)
(0.109353 0.0491892 0)
(0.0824961 0.0487799 0)
(0.0554955 0.0441633 0)
(0.0306635 0.034407 0)
(0.0113971 0.0200327 0)
(0.000765272 0.00479425 0)
(0.347789 0.000928548 0)
(0.347468 0.000941831 0)
(0.347137 0.000994806 0)
(0.346782 0.00109054 0)
(0.346387 0.00123296 0)
(0.345937 0.00142714 0)
(0.345414 0.00167958 0)
(0.344795 0.00199849 0)
(0.344057 0.00239417 0)
(0.343172 0.00287933 0)
(0.342107 0.00346956 0)
(0.340821 0.00418379 0)
(0.339268 0.00504488 0)
(0.337393 0.00608025 0)
(0.335128 0.00732265 0)
(0.332395 0.00881098 0)
(0.329098 0.0105912 0)
(0.325123 0.0127172 0)
(0.320337 0.0152515 0)
(0.314579 0.0182655 0)
(0.307661 0.0218383 0)
(0.29936 0.0260536 0)
(0.289418 0.0309925 0)
(0.277543 0.0367188 0)
(0.263402 0.0432532 0)
(0.24664 0.0505301 0)
(0.226892 0.0583305 0)
(0.203831 0.0661869 0)
(0.177247 0.0732632 0)
(0.147186 0.0782382 0)
(0.114172 0.0792564 0)
(0.0795364 0.0740836 0)
(0.0459449 0.0606983 0)
(0.0182132 0.0387013 0)
(0.00149944 0.0119666 0)
(0.397536 0.0012541 0)
(0.397223 0.00127171 0)
(0.396899 0.00134199 0)
(0.396553 0.0014692 0)
(0.396169 0.00165877 0)
(0.395732 0.00191762 0)
(0.395223 0.00225461 0)
(0.394623 0.00268094 0)
(0.393908 0.00321061 0)
(0.39305 0.00386094 0)
(0.392015 0.00465318 0)
(0.390766 0.00561317 0)
(0.389255 0.00677221 0)
(0.387428 0.0081679 0)
(0.385217 0.00984525 0)
(0.382542 0.0118579 0)
(0.379309 0.0142692 0)
(0.375401 0.0171541 0)
(0.37068 0.0205994 0)
(0.364983 0.0247053 0)
(0.358112 0.0295839 0)
(0.349833 0.0353567 0)
(0.339869 0.0421463 0)
(0.327894 0.0500608 0)
(0.313527 0.059164 0)
(0.296328 0.0694246 0)
(0.275803 0.0806346 0)
(0.251422 0.092284 0)
(0.222672 0.103389 0)