/*--------------------------------*- C++ -*----------------------------------*\
| =========                 |                                                 |
| \\      /  F ield         | OpenFOAM: The Open Source CFD Toolbox           |
|  \\    /   O peration     | Version:  2406                                  |
|   \\  /    A nd           | Website:  www.openfoam.com                      |
|    \\/     M anipulation  |                                                 |
\*---------------------------------------------------------------------------*/
FoamFile
{
    version     2.0;
    format      ascii;
    arch        "LSB;label=32;scalar=64";
    class       volScalarField;
    location    "22";
    object      p;
}
// * * * * * * * * * * * * * * * * * * * * * * * * * * * * * * * * * * * * * //

dimensions      [0 2 -2 0 0 0 0];

internalField   nonuniform List<scalar> 
1900
(
3.04674
2.20305
1.76298
1.5632
1.43013
1.32229
1.22525
1.12929
1.02943
0.879508
2.26351
1.94907
1.71237
1.55734
1.43529
1.32863
1.22938
1.1309
1.02587
0.897689
1.88717
1.79859
1.6743
1.55305
1.44195
1.33867
1.24034
1.14406
1.04725
0.948586
1.7463
1.72083
1.64584
1.54855
1.4487
1.35137
1.25752
1.16722
1.0807
0.999619
1.69166
1.6858
1.63194
1.54817
1.45601
1.36392
1.275
1.19078
1.11229
1.04104
1.69492
1.68893
1.63543
1.55275
1.46247
1.37317
1.28807
1.2087
1.1358
1.07011
1.75566
1.72995
1.65616
1.56201
1.46743
1.37792
1.29493
1.21882
1.14943
1.08672
1.90134
1.81257
1.69025
1.57355
1.46989
1.37771
1.29528
1.22093
1.15333
1.09184
2.28029
1.96563
1.73082
1.58022
1.46555
1.37035
1.28834
1.21515
1.14831
1.08689
3.06379
2.21946
1.78037
1.58368
1.45643
1.35839
1.27722
1.20516
1.13862
1.07671
0.7344
0.73523
0.740297
0.749618
0.76141
0.773912
0.785688
0.795673
0.803167
0.807805
0.809488
0.808322
0.804552
0.798502
0.790534
0.781017
0.770296
0.758687
0.746463
0.733851
0.721038
0.708169
0.695355
0.682674
0.670182
0.65791
0.645877
0.634087
0.622533
0.611206
0.600087
0.589158
0.578399
0.567789
0.557307
0.73377
0.734543
0.73919
0.747524
0.75807
0.76932
0.780015
0.78919
0.796183
0.80062
0.802367
0.801482
0.798154
0.792661
0.785318
0.776456
0.76639
0.755412
0.743777
0.731702
0.719367
0.706914
0.694454
0.68207
0.66982
0.657742
0.645858
0.634179
0.622706
0.611432
0.600345
0.589431
0.578673
0.568055
0.557558
0.72864
0.729958
0.735022
0.743361
0.7536
0.764394
0.774621
0.78341
0.790157
0.794507
0.796324
0.795649
0.792646
0.787564
0.780693
0.772337
0.762788
0.75232
0.741172
0.729551
0.717629
0.705544
0.693406
0.681297
0.669277
0.657388
0.645657
0.634097
0.622714
0.611506
0.600465
0.589581
0.57884
0.568228
0.55773
0.717755
0.720817
0.727708
0.737487
0.748715
0.760105
0.770627
0.779512
0.786247
0.790548
0.792332
0.791666
0.788734
0.783785
0.777107
0.768994
0.759727
0.749565
0.738735
0.727434
0.715821
0.704029
0.692161
0.680295
0.668491
0.656789
0.645216
0.633789
0.622515
0.611393
0.60042
0.589587
0.578883
0.568297
0.557815
0.700713
0.707085
0.7175
0.730171
0.743519
0.75632
0.767671
0.776947
0.783778
0.788007
0.789641
0.788817
0.785758
0.780739
0.774058
0.766007
0.756864
0.746875
0.736257
0.72519
0.713826
0.702285
0.690661
0.679028
0.667439
0.655932
0.644533
0.633257
0.622112
0.611099
0.600216
0.589456
0.57881
0.568268
0.55782
0.676649
0.688721
0.70493
0.722064
0.738514
0.753304
0.765769
0.775515
0.782389
0.786412
0.787728
0.786563
0.783199
0.777946
0.771116
0.763007
0.753888
0.743996
0.733531
0.722662
0.711524
0.700224
0.688847
0.677456
0.666099
0.654808
0.643606
0.632507
0.621517
0.610638
0.599869
0.589204
0.578636
0.568158
0.55776
0.64421
0.665537
0.690846
0.714211
0.734544
0.75161
0.765201
0.775271
0.781965
0.785542
0.786307
0.784593
0.780748
0.775116
0.768024
0.759769
0.750613
0.740776
0.730442
0.719761
0.708851
0.697805
0.686693
0.675568
0.664469
0.653423
0.642447
0.631552
0.620745
0.610027
0.599396
0.588848
0.578378
0.567981
0.557647
0.595679
0.635322
0.676208
0.70799
0.732698
0.751963
0.766369
0.776366
0.78249
0.785275
0.785203
0.782716
0.778218
0.772081
0.764639
0.756182
0.746954
0.737157
0.726954
0.71647
0.705806
0.695036
0.684215
0.673385
0.662574
0.651802
0.641081
0.63042
0.619822
0.609288
0.598816
0.588406
0.578051
0.567749
0.557494
0.501174
0.594523
0.663607
0.705862
0.734669
0.755396
0.769812
0.779019
0.783991
0.785538
0.784304
0.780811
0.775503
0.76876
0.760908
0.752218
0.74291
0.733159
0.7231
0.712836
0.702442
0.691975
0.681474
0.670965
0.660469
0.649997
0.639556
0.62915
0.618782
0.608451
0.598157
0.587899
0.577673
0.567478
0.55731
0.397845
0.574685
0.669205
0.715806
0.74439
0.763749
0.776314
0.783501
0.786508
0.786281
0.783535
0.778816
0.772565
0.765146
0.756854
0.747927
0.73855
0.728865
0.718976
0.708956
0.698859
0.68872
0.67856
0.668395
0.658233
0.648078
0.637933
0.627797
0.617672
0.607557
0.597451
0.587354
0.577265
0.567184
0.55711
0.639643
0.670674
0.72068
0.74797
0.765651
0.778291
0.786186
0.789788
0.789923
0.787386
0.782812
0.776692
0.769413
0.761286
0.752556
0.743412
0.733995
0.724407
0.714716
0.704968
0.695189
0.685394
0.675591
0.66578
0.655961
0.64613
0.636285
0.626425
0.616546
0.606649
0.596733
0.5868
0.57685
0.566884
0.556906
0.771528
0.758435
0.774203
0.784543
0.791288
0.795959
0.797938
0.797065
0.793758
0.788573
0.78199
0.774389
0.766066
0.757251
0.748122
0.738806
0.729393
0.719939
0.710476
0.70102
0.691574
0.682133
0.672688
0.663231
0.65375
0.644239
0.634688
0.625095
0.615457
0.605771
0.59604
0.586265
0.57645
0.566596
0.55671
0.864127
0.832599
0.825258
0.821327
0.817836
0.814383
0.810039
0.804345
0.797388
0.789464
0.780864
0.771826
0.762529
0.753109
0.743659
0.734241
0.724887
0.715609
0.706404
0.697257
0.68815
0.67906
0.669967
0.66085
0.651694
0.642484
0.633211
0.623869
0.614454
0.604966
0.595406
0.585778
0.576086
0.566336
0.556534
0.931885
0.892096
0.870168
0.854769
0.842188
0.831206
0.820842
0.810519
0.800088
0.789608
0.779178
0.768883
0.758779
0.748896
0.739244
0.729817
0.720592
0.711537
0.702617
0.693792
0.685023
0.676275
0.667516
0.658719
0.649863
0.64093
0.631909
0.622793
0.613579
0.604267
0.594859
0.585361
0.575778
0.566119
0.556391
0.980754
0.936906
0.905817
0.881701
0.861641
0.844315
0.82881
0.814521
0.801143
0.788546
0.776656
0.765413
0.754752
0.744607
0.734909
0.725587
0.716571
0.707793
0.699187
0.690694
0.68226
0.673841
0.665395
0.656892
0.648306
0.63962
0.630821
0.621903
0.612862
0.6037
0.594421
0.585033
0.575541
0.565957
0.556289
1.01321
0.967068
0.930263
0.899983
0.87433
0.852197
0.83279
0.815516
0.799975
0.78589
0.773046
0.761257
0.750357
0.740193
0.730631
0.721547
0.712832
0.704387
0.696129
0.687982
0.679883
0.671778
0.663625
0.65539
0.647047
0.638577
0.62997
0.621218
0.612322
0.603284
0.59411
0.584808
0.575388
0.565861
0.55624
1.03118
0.983492
0.943136
0.908816
0.879405
0.854067
0.832118
0.81298
0.796182
0.781337
0.768119
0.756242
0.745456
0.735545
0.72632
0.717621
0.709311
0.701271
0.693403
0.685623
0.677865
0.67007
0.662197
0.654209
0.646085
0.637805
0.629362
0.62075
0.611972
0.603031
0.593938
0.5847
0.575332
0.565845
0.556254
1.03648
0.987561
0.944996
0.908245
0.876653
0.849579
0.826396
0.806513
0.789388
0.774546
0.761569
0.750094
0.739807
0.730447
0.721788
0.713647
0.705868
0.698324
0.690909
0.683539
0.676143
0.668671
0.661075
0.653329
0.645408
0.637302
0.629
0.620507
0.611822
0.602957
0.59392
0.584727
0.575389
0.565924
0.556344
1.03092
0.980823
0.936812
0.898745
0.866212
0.838644
0.815399
0.795818
0.779274
0.765198
0.753094
0.742534
0.733161
0.724678
0.716844
0.709459
0.702364
0.695429
0.688553
0.681651
0.674661
0.667533
0.660229
0.652725
0.645004
0.637057
0.628884
0.620488
0.611878
0.603066
0.594066
0.584894
0.575568
0.566105
0.556522
1.01978
0.968531
0.923504
0.884777
0.852038
0.82471
0.802078
0.783387
0.767909
0.75499
0.744061
0.734648
0.726359
0.718881
0.711959
0.705393
0.699025
0.692729
0.686409
0.679986
0.673405
0.666622
0.659606
0.652338
0.644808
0.637012
0.628955
0.620645
0.612095
0.603321
0.594343
0.585179
0.57585
0.566376
0.556776
0.546935
0.536653
0.526448
0.516302
0.506205
0.496145
0.486113
0.476102
0.466104
0.456115
0.547166
0.536863
0.526634
0.516465
0.506345
0.496264
0.486213
0.476184
0.46617
0.456168
0.547331
0.537017
0.526774
0.516592
0.506457
0.496362
0.486297
0.476255
0.46623
0.456217
0.547425
0.537114
0.526871
0.516685
0.506544
0.496441
0.486368
0.476318
0.466286
0.456265
0.547455
0.537161
0.526929
0.516748
0.50661
0.496506
0.486431
0.476377
0.46634
0.456314
0.547433
0.537169
0.526957
0.516791
0.506662
0.496563
0.48649
0.476435
0.466395
0.456366
0.547372
0.537147
0.526965
0.51682
0.506706
0.496617
0.486548
0.476496
0.466455
0.456424
0.54728
0.537104
0.526959
0.516842
0.506747
0.496671
0.48661
0.47656
0.46652
0.456487
0.547168
0.537047
0.526945
0.516859
0.506787
0.496726
0.486674
0.47663
0.466591
0.456556
0.547043
0.536981
0.526925
0.516874
0.506826
0.496782
0.486741
0.476702
0.466665
0.456629
0.546915
0.536914
0.526905
0.516888
0.506866
0.496839
0.486808
0.476775
0.46674
0.456703
0.546793
0.536851
0.526887
0.516904
0.506906
0.496896
0.486876
0.476848
0.466814
0.456776
0.546686
0.536797
0.526875
0.516923
0.506947
0.496951
0.48694
0.476917
0.466884
0.456845
0.546602
0.53676
0.526872
0.516947
0.506989
0.497006
0.487002
0.476982
0.46695
0.456909
0.546548
0.536743
0.526884
0.516979
0.507036
0.497061
0.487062
0.477043
0.467011
0.456966
0.546534
0.536756
0.526916
0.517024
0.507089
0.497119
0.487121
0.477102
0.467066
0.457019
0.546569
0.536807
0.526975
0.517089
0.507155
0.497185
0.487184
0.477161
0.46712
0.457068
0.546668
0.536906
0.527075
0.517182
0.507244
0.497264
0.487257
0.477224
0.467177
0.457116
0.546836
0.537064
0.527217
0.517311
0.507356
0.497364
0.487341
0.477297
0.467237
0.457166
0.54707
0.537274
0.527404
0.517474
0.507497
0.497483
0.487441
0.477379
0.467304
0.457219
0.446131
0.436149
0.426166
0.416181
0.406193
0.396201
0.386205
0.376204
0.366199
0.356189
0.346176
0.336159
0.326139
0.316117
0.306091
0.296064
0.286035
0.276004
0.265973
0.25594
0.245906
0.235871
0.225836
0.215801
0.205765
0.195729
0.185693
0.175656
0.165619
0.155582
0.145545
0.135508
0.125471
0.115433
0.105395
0.446173
0.436181
0.42619
0.416198
0.406205
0.396209
0.386209
0.376206
0.366199
0.356188
0.346174
0.336157
0.326137
0.316114
0.306089
0.296061
0.286033
0.276002
0.265971
0.255938
0.245904
0.23587
0.225835
0.2158
0.205764
0.195728
0.185692
0.175655
0.165619
0.155581
0.145545
0.135507
0.12547
0.115432
0.105394
0.446213
0.436213
0.426215
0.416218
0.40622
0.39622
0.386217
0.376211
0.366202
0.35619
0.346175
0.336157
0.326136
0.316113
0.306087
0.29606
0.286031
0.276001
0.265969
0.255937
0.245903
0.235869
0.225834
0.215799
0.205764
0.195728
0.185691
0.175655
0.165618
0.155582
0.145545
0.135508
0.12547
0.115433
0.105395
0.446254
0.436247
0.426244
0.416242
0.406239
0.396235
0.386229
0.376221
0.36621
0.356196
0.346179
0.33616
0.326138
0.316114
0.306088
0.29606
0.286031
0.276
0.265969
0.255936
0.245903
0.235868
0.225834
0.215799
0.205763
0.195727
0.185691
0.175655
0.165618
0.155581
0.145544
0.135507
0.12547
0.115433
0.105395
0.446297
0.436286
0.426277
0.41627
0.406263
0.396256
0.386246
0.376235
0.366221
0.356204
0.346186
0.336165
0.326142
0.316117
0.30609
0.296062
0.286032
0.276001
0.265969
0.255936
0.245902
0.235868
0.225833
0.215798
0.205763
0.195727
0.185691
0.175654
0.165618
0.155581
0.145544
0.135507
0.12547
0.115432
0.105395
0.446345
0.436329
0.426316
0.416304
0.406293
0.396281
0.386267
0.376252
0.366236
0.356217
0.346196
0.336173
0.326148
0.316122
0.306094
0.296064
0.286034
0.276002
0.26597
0.255937
0.245903
0.235868
0.225833
0.215798
0.205762
0.195726
0.18569
0.175654
0.165617
0.155581
0.145544
0.135507
0.12547
0.115432
0.105395
0.446399
0.436378
0.42636
0.416344
0.406328
0.396311
0.386293
0.376275
0.366254
0.356232
0.346208
0.336183
0.326156
0.316128
0.306099
0.296068
0.286037
0.276004
0.265971
0.255937
0.245903
0.235868
0.225833
0.215798
0.205762
0.195726
0.18569
0.175654
0.165617
0.15558
0.145544
0.135507
0.125469
0.115432
0.105394
0.446459
0.436434
0.426411
0.416389
0.406368
0.396346
0.386324
0.3763
0.366276
0.35625
0.346223
0.336195
0.326166
0.316136
0.306105
0.296073
0.28604
0.276007
0.265973
0.255939
0.245904
0.235869
0.225833
0.215798
0.205762
0.195726
0.18569
0.175653
0.165617
0.15558
0.145543
0.135506
0.125469
0.115432
0.105394
0.446525
0.436495
0.426467
0.41644
0.406413
0.396385
0.386357
0.376329
0.3663
0.35627
0.34624
0.336209
0.326177
0.316145
0.306112
0.296078
0.286044
0.27601
0.265975
0.25594
0.245905
0.235869
0.225834
0.215798
0.205762
0.195726
0.185689
0.175653
0.165616
0.15558
0.145543
0.135506
0.125469
0.115431
0.105394
0.446594
0.43656
0.426526
0.416493
0.40646
0.396427
0.386393
0.37636
0.366326
0.356292
0.346258
0.336224
0.326189
0.316154
0.306119
0.296084
0.286048
0.276013
0.265977
0.255942
0.245906
0.23587
0.225834
0.215798
0.205762
0.195725
0.185689
0.175653
0.165616
0.155579
0.145543
0.135506
0.125468
0.115431
0.105393
0.446665
0.436626
0.426587
0.416548
0.406508
0.396469
0.38643
0.376391
0.366353
0.356314
0.346276
0.336239
0.326201
0.316164
0.306127
0.29609
0.286053
0.276016
0.26598
0.255943
0.245907
0.23587
0.225834
0.215798
0.205761
0.195725
0.185689
0.175652
0.165616
0.155579
0.145542
0.135505
0.125468
0.115431
0.105393
0.446734
0.436691
0.426646
0.416601
0.406556
0.396511
0.386466
0.376422
0.366379
0.356336
0.346294
0.336253
0.326213
0.316173
0.306134
0.296095
0.286057
0.276019
0.265982
0.255945
0.245908
0.235871
0.225834
0.215798
0.205761
0.195725
0.185688
0.175652
0.165615
0.155578
0.145542
0.135505
0.125468
0.11543
0.105393
0.4468
0.436752
0.426702
0.416652
0.406601
0.39655
0.3865
0.376451
0.366403
0.356356
0.346311
0.336267
0.326224
0.316182
0.306141
0.296101
0.286061
0.276022
0.265984
0.255946
0.245909
0.235871
0.225834
0.215798
0.205761
0.195724
0.185688
0.175651
0.165615
0.155578
0.145541
0.135504
0.125467
0.11543
0.105393
0.446861
0.436808
0.426753
0.416697
0.406641
0.396585
0.38653
0.376477
0.366425
0.356375
0.346326
0.336279
0.326234
0.31619
0.306147
0.296105
0.286065
0.276025
0.265986
0.255947
0.245909
0.235872
0.225834
0.215798
0.205761
0.195724
0.185687
0.175651
0.165614
0.155578
0.145541
0.135504
0.125467
0.11543
0.105392
0.446915
0.436858
0.426799
0.416737
0.406676
0.396615
0.386557
0.376499
0.366444
0.35639
0.346339
0.336289
0.326242
0.316196
0.306152
0.296109
0.286068
0.276027
0.265987
0.255948
0.24591
0.235872
0.225835
0.215797
0.205761
0.195723
0.185687
0.17565
0.165614
0.155577
0.145541
0.135503
0.125467
0.115429
0.105392
0.446963
0.436902
0.426837
0.416772
0.406706
0.396641
0.386578
0.376517
0.366458
0.356402
0.346349
0.336297
0.326248
0.316201
0.306156
0.296112
0.286069
0.276028
0.265988
0.255949
0.24591
0.235872
0.225834
0.215797
0.20576
0.195723
0.185687
0.17565
0.165613
0.155577
0.14554
0.135503
0.125466
0.115429
0.105392
0.447006
0.43694
0.42687
0.4168
0.406729
0.396662
0.386594
0.376531
0.366469
0.356412
0.346355
0.336303
0.326252
0.316205
0.306157
0.296114
0.28607
0.276029
0.265988
0.255949
0.245909
0.235872
0.225834
0.215797
0.205759
0.195723
0.185686
0.17565
0.165613
0.155577
0.145539
0.135504
0.125466
0.11543
0.105391
0.447049
0.436974
0.4269
0.416823
0.40675
0.396676
0.386608
0.37654
0.366478
0.356416
0.34636
0.336305
0.326255
0.316205
0.306159
0.296113
0.286071
0.276028
0.265988
0.255947
0.24591
0.23587
0.225834
0.215796
0.20576
0.195722
0.185686
0.175649
0.165613
0.155576
0.14554
0.135502
0.125466
0.115428
0.105392
0.447089
0.437008
0.426925
0.416844
0.406765
0.396689
0.386615
0.376546
0.366481
0.356419
0.346361
0.336306
0.326254
0.316205
0.306157
0.296112
0.286069
0.276027
0.265986
0.255947
0.245908
0.23587
0.225832
0.215795
0.205758
0.195722
0.185685
0.175649
0.165612
0.155576
0.145539
0.135502
0.125465
0.115429
0.105391
0.44713
0.437039
0.426949
0.416861
0.406777
0.396696
0.38662
0.376548
0.366481
0.356418
0.346359
0.336303
0.326251
0.316201
0.306154
0.296109
0.286066
0.276025
0.265984
0.255945
0.245906
0.235869
0.225831
0.215794
0.205758
0.195721
0.185685
0.175648
0.165612
0.155576
0.145539
0.135503
0.125466
0.115429
0.105391
0.0953566
0.085318
0.0752792
0.0652404
0.0552015
0.0451609
0.0351203
0.0250838
0.0150396
0.00499853
0.095356
0.0853176
0.0752791
0.0652413
0.055201
0.0451556
0.0351191
0.0251097
0.0150318
0.00496082
0.0953569
0.0853187
0.075281
0.0652439
0.0552039
0.0451565
0.0351225
0.0251275
0.0150382
0.00496208
0.0953568
0.0853187
0.0752812
0.0652442
0.0552035
0.0451552
0.0351226
0.0251293
0.015028
0.00496078
0.0953567
0.0853186
0.0752811
0.065244
0.055203
0.0451548
0.0351245
0.025132
0.015014
0.00495986
0.0953566
0.0853186
0.075281
0.0652437
0.0552023
0.0451546
0.0351277
0.0251354
0.015002
0.00496136
0.0953565
0.0853184
0.0752809
0.0652433
0.0552015
0.045154
0.0351294
0.0251377
0.0149905
0.00496335
0.0953562
0.0853182
0.0752805
0.0652427
0.0552005
0.0451532
0.0351304
0.0251384
0.0149803
0.00496513
0.0953559
0.0853178
0.0752802
0.0652422
0.0551997
0.0451526
0.0351308
0.0251385
0.0149729
0.0049667
0.0953556
0.0853175
0.0752799
0.0652418
0.0551992
0.0451522
0.0351311
0.0251386
0.0149692
0.00496803
0.0953553
0.0853173
0.0752797
0.0652416
0.0551991
0.0451522
0.0351312
0.0251386
0.0149697
0.00496903
0.0953551
0.0853172
0.0752796
0.0652418
0.0551994
0.0451526
0.0351311
0.0251388
0.0149742
0.00496958
0.0953549
0.0853171
0.0752797
0.065242
0.0552
0.0451533
0.0351309
0.0251386
0.0149825
0.00496969
0.0953548
0.0853169
0.0752798
0.0652424
0.055201
0.0451539
0.0351301
0.0251381
0.0149933
0.00496918
0.0953543
0.0853171
0.0752795
0.065243
0.0552015
0.0451549
0.0351284
0.025136
0.0150053
0.00496805
0.0953545
0.0853167
0.0752798
0.0652429
0.0552024
0.045155
0.0351256
0.0251329
0.0150176
0.0049668
0.0953548
0.0853162
0.07528
0.0652426
0.0552034
0.0451551
0.0351238
0.0251301
0.0150317
0.00496758
0.0953535
0.085317
0.0752787
0.0652435
0.0552032
0.0451573
0.0351234
0.0251291
0.0150422
0.00496821
0.0953535
0.0853154
0.075278
0.0652408
0.0552017
0.0451562
0.0351204
0.025112
0.0150362
0.00496607
0.0953538
0.0853158
0.0752778
0.0652399
0.0552019
0.045162
0.0351224
0.0250864
0.0150433
0.00500173
)
;

boundaryField
{
    inlet
    {
        type            zeroGradient;
    }
    outlet
    {
        type            fixedValue;
        value           uniform 0;
    }
    upperWall
    {
        type            zeroGradient;
    }
    lowerWall
    {
        type            zeroGradient;
    }
    frontAndBack
    {
        type            empty;
    }
}


// ************************************************************************* //
