/*--------------------------------*- C++ -*----------------------------------*\
| =========                 |                                                 |
| \\      /  F ield         | OpenFOAM: The Open Source CFD Toolbox           |
|  \\    /   O peration     | Version:  2406                                  |
|   \\  /    A nd           | Website:  www.openfoam.com                      |
|    \\/     M anipulation  |                                                 |
\*---------------------------------------------------------------------------*/
FoamFile
{
    version     2.0;
    format      ascii;
    arch        "LSB;label=32;scalar=64";
    class       surfaceScalarField;
    location    "22";
    object      phi;
}
// * * * * * * * * * * * * * * * * * * * * * * * * * * * * * * * * * * * * * //

dimensions      [0 3 -1 0 0 0 0];

oriented        oriented;

internalField   nonuniform List<scalar> 
3680
(
0.0520826
0.0146183
0.0385088
0.0135742
0.0303041
0.00820452
0.0257308
0.00457309
0.0233846
0.00234563
0.0224853
0.000898785
0.0226753
-0.000190212
0.0240108
-0.0013345
0.0272962
-0.00328578
-0.00876301
0.0360592
0.070085
0.0112342
0.06735
0.0163104
0.0627595
0.0127962
0.0590215
0.00831052
0.0567347
0.00463124
0.0558197
0.00181319
0.0561276
-0.000497519
0.0576473
-0.00285365
0.0604561
-0.00609408
-0.0115818
0.0632732
0.0710894
0.00684545
0.0752601
0.0121412
0.0769992
0.0110568
0.0774507
0.00785855
0.0775907
0.00449119
0.0779114
0.00149262
0.078622
-0.00120772
0.0797514
-0.00398292
0.0810333
-0.00737656
-0.0119577
0.081409
0.0704497
0.0030958
0.0766493
0.00594005
0.0819958
0.00570918
0.0858429
0.00401181
0.0884479
0.00188706
0.0902093
-0.000268094
0.0914379
-0.00243614
0.0922596
-0.00480466
0.0925211
-0.00763833
-0.0111211
0.0916837
0.0699941
-0.000199431
0.0765033
-0.000571993
0.08317
-0.000958046
0.0885927
-0.00141021
0.0924685
-0.00198767
0.094966
-0.00276462
0.096361
-0.00383064
0.0968393
-0.00528287
0.0963993
-0.00719847
-0.00956258
0.094841
0.0699666
-0.00346699
0.0763944
-0.00700069
0.0829175
-0.00748143
0.0881239
-0.00661566
0.0916968
-0.0055593
0.0937906
-0.00485747
0.0946733
-0.00471279
0.0945448
-0.00515404
0.0934714
-0.00612474
-0.0074982
0.0914075
0.0703696
-0.00713672
0.076336
-0.0129654
0.0812788
-0.0124235
0.0845226
-0.00985844
0.0862849
-0.00732113
0.0869164
-0.00548894
0.0866863
-0.00448262
0.0857319
-0.00419949
0.0840783
-0.00447079
-0.00511165
0.0816923
0.0709726
-0.0114074
0.0748073
-0.0167998
0.0759811
-0.0135958
0.0755978
-0.00947592
0.0745703
-0.00629505
0.0732961
-0.00421568
0.071867
-0.00305413
0.0702254
-0.00255801
0.0682603
-0.00250572
-0.00272152
0.0658702
0.0699667
-0.0146741
0.0669056
-0.0137371
0.0617756
-0.00846686
0.0572521
-0.00495415
0.0538553
-0.00289981
0.05137
-0.00173155
0.0494381
-0.00112299
0.0477346
-0.000854918
0.0460134
-0.000784808
-0.000823202
0.0441147
0.052026
0.0382888
0.0298217
0.0248673
0.0219673
0.0202356
0.0191125
0.0182576
0.0174727
0.0166494
-0.000130131
0.00013025
-0.000340167
0.000210202
-0.00049363
0.000153624
-0.000514844
2.14592e-05
-0.000381392
-0.000133105
-0.000103882
-0.000277041
0.000289413
-0.000392728
0.00076356
-0.000473483
0.00128377
-0.000519504
0.00181929
-0.000534788
0.00234507
-0.000525104
0.00284231
-0.00049664
0.00329805
-0.000455261
0.00370446
-0.000406076
0.00405792
-0.000353276
0.00435805
-0.000300111
0.00460688
-0.000248958
0.00480805
-0.000201442
0.00496624
-0.000158555
0.0050866
-0.00012081
0.00517444
-8.83344e-05
0.00523491
-6.10042e-05
0.00527289
-3.84983e-05
0.00529278
-2.03983e-05
0.00529854
-6.21182e-06
0.00529357
4.56254e-06
0.0052808
1.24305e-05
0.00526266
1.78644e-05
0.00524116
2.13063e-05
0.00521787
2.31494e-05
0.00519405
2.3744e-05
0.00517065
2.33909e-05
0.00514833
2.23477e-05
0.00512757
2.08284e-05
1.90086e-05
0.00510866
-0.000238184
0.000368633
-0.00056402
0.000536456
-0.000721122
0.000311259
-0.000575879
-0.000123128
-9.21244e-05
-0.000615973
0.000701983
-0.00107003
0.00174349
-0.00143292
0.0029561
-0.00168466
0.00426412
-0.00182602
0.00560031
-0.00186953
0.00690965
-0.0018331
0.00815025
-0.0017361
0.00929276
-0.00159689
0.0103189
-0.00143163
0.0112196
-0.00125369
0.011993
-0.00107358
0.0126428
-0.000899142
0.0131767
-0.000735867
0.0136046
-0.000587277
0.0139381
-0.000455301
0.0141894
-0.000340652
0.0143705
-0.000243131
0.0144928
-0.000161905
0.0145671
-9.57159e-05
0.014603
-4.30651e-05
0.0146091
-2.33538e-06
0.0145927
2.81054e-05
0.0145602
4.98387e-05
0.0145167
6.43476e-05
0.0144666
7.29855e-05
0.0144132
7.69644e-05
0.0143592
7.73442e-05
0.0143066
7.50404e-05
0.0142567
7.08229e-05
6.53336e-05
0.0142106
-0.000248359
0.000617065
-0.000500784
0.000789178
-0.000452872
0.00026355
2.98581e-05
-0.000605445
0.000963032
-0.00154854
0.00228966
-0.00239591
0.00391707
-0.00305948
0.00574216
-0.00350882
0.00766672
-0.00374963
0.00960563
-0.00380751
0.0114902
-0.00371686
0.0132688
-0.00351392
0.0149053
-0.00323277
0.0163773
-0.00290329
0.0176741
-0.00255022
0.0187937
-0.00219316
0.0197412
-0.00184683
0.0205267
-0.00152169
0.0211636
-0.00122456
0.0216671
-0.000959348
0.0220534
-0.000727637
0.0223389
-0.000529283
0.0225392
-0.000362889
0.022669
-0.000226209
0.0227418
-0.000116472
0.0227695
-3.06395e-05
0.0227627
3.44107e-05
0.0227303
8.17365e-05
0.0226801
0.000114239
0.0226182
0.000134595
0.0225497
0.000145218
0.0224787
0.000148242
0.0224082
0.000145519
0.0223404
0.000138627
0.000128882
0.0222769
-0.000201642
0.000818757
-0.000244443
0.000832047
0.000180191
-0.000160651
0.0011602
-0.00158511
0.00265433
-0.00304229
0.00455901
-0.00430005
0.00674992
-0.00524976
0.00910546
-0.00586369
0.0115185
-0.00616198
0.0139009
-0.00618933
0.0161847
-0.00600001
0.0183201
-0.00564882
0.020274
-0.0051862
0.0220269
-0.00465583
0.0235706
-0.00409374
0.024906
-0.00352837
0.0260403
-0.00298118
0.026986
-0.00246746
0.0277585
-0.00199729
0.0283754
-0.00157651
0.028855
-0.00120756
0.0292157
-0.000890348
0.0294753
-0.00062287
0.0296504
-0.000401838
0.0297566
-0.000223132
0.0298077
-8.21721e-05
0.029816
2.57804e-05
0.0297919
0.000105417
0.0297446
0.000161221
0.0296815
0.000197362
0.0296089
0.000217629
0.0295315
0.000225394
0.0294533
0.000223604
0.0293771
0.000214785
0.000201058
0.0293048
-0.000107893
0.000926846
0.000203881
0.000521089
0.00119675
-0.00115307
0.00285016
-0.00323789
0.00502595
-0.00521739
0.00755881
-0.00683225
0.0102947
-0.00798496
0.0131042
-0.00867257
0.0158855
-0.00894262
0.0185619
-0.00886518
0.0210788
-0.00851629
0.0233993
-0.00796881
0.0255014
-0.00728785
0.0273748
-0.00652879
0.0290182
-0.00573686
0.0304376
-0.00494756
0.031644
-0.00418754
0.0326524
-0.00347579
0.0334798
-0.00282479
0.0341448
-0.00224171
0.0346666
-0.0017295
0.0350638
-0.00128787
0.0353548
-0.000914138
0.0355565
-0.000603923
0.0356848
-0.000351761
0.0357538
-0.000151563
0.0357762
3.00681e-06
0.035763
0.00011825
0.0357237
0.000200224
0.0356662
0.000254594
0.035597
0.00028654
0.0355215
0.000300702
0.0354438
0.000301153
0.035367
0.000291407
0.000274431
0.0352936
7.11766e-05
0.000855997
0.000955329
-0.00036383
0.00277252
-0.00296959
0.00530197
-0.00576686
0.00827157
-0.00818658
0.0114545
-0.0100146
0.0146828
-0.0112126
0.0178393
-0.0118284
0.0208456
-0.0119484
0.0236519
-0.0116708
0.0262284
-0.0110922
0.02856
-0.0102998
0.0306421
-0.00936949
0.0324779
-0.00836424
0.0340763
-0.00733493
0.03545
-0.00632105
0.0366146
-0.00535204
0.0375875
-0.00444865
0.038387
-0.00362435
0.0390319
-0.00288665
0.0395406
-0.00223835
0.0399311
-0.00167859
0.0402204
-0.0012038
0.0404247
-0.000808467
0.0405585
-0.000485848
0.040635
-0.00022845
0.0406662
-2.84863e-05
0.0406623
0.000121803
0.0406323
0.000229901
0.0405838
0.000302834
0.0405231
0.000347057
0.0404552
0.000368378
0.0403843
0.000371921
0.0403134
0.000362127
0.000342767
0.040245
0.000453879
0.000400585
0.00229799
-0.00220761
0.00529637
-0.00596958
0.00890861
-0.00937961
0.012725
-0.0120029
0.0164966
-0.0137859
0.0200832
-0.0147988
0.0234121
-0.0151569
0.0264508
-0.0149865
0.02919
-0.0144096
0.031634
-0.0135356
0.0337944
-0.0124598
0.0356874
-0.0112621
0.0373315
-0.010008
0.0387461
-0.00874933
0.0399513
-0.00752601
0.0409667
-0.00636732
0.0418116
-0.00529356
0.0425048
-0.00431752
0.0430639
-0.0034459
0.043506
-0.00268054
0.0438467
-0.00201955
0.044101
-0.00145826
0.0442823
-0.000990024
0.0444031
-0.00060688
0.0444745
-0.000300127
0.0445065
-6.07545e-05
0.0445078
0.000120202
0.0444861
0.000251396
0.0444477
0.000340973
0.0443981
0.000396435
0.0443418
0.000424561
0.0442822
0.000431353
0.0442222
0.000422035
0.000401062
0.0441638
0.00131521
-0.000913902
0.00485512
-0.00575213
0.0094855
-0.0106016
0.0142824
-0.0141774
0.0188268
-0.0165478
0.0229584
-0.0179177
0.0266338
-0.0184741
0.0298622
-0.0183851
0.0326752
-0.0177992
0.0351116
-0.0168457
0.0372117
-0.0156353
0.0390135
-0.0142613
0.0405523
-0.0128007
0.04186
-0.0113154
0.0429649
-0.00985408
0.0438923
-0.00845333
0.0446646
-0.00713955
0.0453016
-0.00593051
0.0458208
-0.00483675
0.0462379
-0.00386307
0.0465669
-0.00300966
0.0468204
-0.0022732
0.0470098
-0.00164777
0.0471452
-0.00112558
0.0472357
-0.000697638
0.0472897
-0.000354269
0.0473143
-8.55423e-05
0.0473159
0.000118385
0.0473001
0.000267002
0.0472717
0.000369247
0.0472346
0.000433371
0.0471922
0.000466844
0.0471471
0.000476304
0.0471015
0.000467543
0.000445519
0.047057
0.00362536
-0.00454193
0.0101307
-0.0122596
0.0165787
-0.0170514
0.0222298
-0.01983
0.0270137
-0.0213324
0.0310116
-0.0219159
0.0343333
-0.021796
0.037084
-0.0211358
0.0393561
-0.0200711
0.0412285
-0.0187179
0.0427683
-0.0171749
0.0440322
-0.015525
0.0450678
-0.0138361
0.0459149
-0.0121624
0.0466064
-0.0105455
0.0471694
-0.00901627
0.047626
-0.00759621
0.0479945
-0.00629892
0.0482893
-0.00513165
0.0485227
-0.00409651
0.0487046
-0.00319159
0.0488432
-0.00241192
0.0489457
-0.00175031
0.049018
-0.00119797
0.0490654
-0.000745095
0.0490924
-0.000381364
0.049103
-9.62815e-05
0.0491008
0.00012049
0.0490888
0.000278891
0.0490697
0.000388278
0.0490457
0.000457296
0.0490187
0.000493781
0.0489902
0.000504714
0.0489615
0.000496198
0.000473474
0.0489335
0.0124472
-0.01699
0.0216221
-0.0214365
0.0283363
-0.0237679
0.0334622
-0.0249567
0.0374282
-0.0252988
0.0405086
-0.0249967
0.042897
-0.0241848
0.0447374
-0.0229764
0.0461422
-0.0214759
0.0472018
-0.0197774
0.0479903
-0.0179634
0.0485687
-0.0161033
0.0489863
-0.0142538
0.0492833
-0.0124593
0.0494911
-0.0107533
0.0496343
-0.00915947
0.0497314
-0.00769336
0.0497963
-0.0063638
0.0498388
-0.00517421
0.049866
-0.00412374
0.0498827
-0.0032083
0.0498921
-0.00242134
0.0498963
-0.00175453
0.0498967
-0.00119836
0.0498942
-0.000742557
0.0498893
-0.000376519
0.0498827
-8.95962e-05
0.0498745
0.000128631
0.0498653
0.000288139
0.0498553
0.000398307
0.0498448
0.000467797
0.0498341
0.000504469
0.0498234
0.00051533
0.0498131
0.00050652
0.000483316
0.0498032
0.0388061
-0.019739
0.0421037
-0.0247362
0.0450352
-0.0266997
0.047442
-0.0273638
0.0493154
-0.0271726
0.0506861
-0.0263678
0.051619
-0.0251179
0.0521909
-0.0235484
0.0524771
-0.0217621
0.0525461
-0.0198464
0.0524577
-0.017875
0.0522626
-0.0159082
0.0520019
-0.0139931
0.0517082
-0.0121656
0.0514059
-0.0104511
0.0511128
-0.00886641
0.0508406
-0.00742126
0.0505966
-0.00611983
0.0503842
-0.00496191
0.0502044
-0.00394393
0.050056
-0.00305989
0.0499367
-0.00230197
0.0498433
-0.00166111
0.0497725
-0.00112745
0.0497208
-0.000690682
0.0496847
-0.000340337
0.0496613
-6.60439e-05
0.0496478
0.000142271
0.0496418
0.000294213
0.0496414
0.000398789
0.049645
0.000464312
0.0496512
0.000498323
0.049659
0.000507552
0.0496676
0.000497897
0.000474435
0.0496765
0.0627186
-0.0191852
0.0619695
-0.0239873
0.0615018
-0.0262323
0.0611128
-0.0269748
0.0606713
-0.0267311
0.0601081
-0.0258047
0.0594045
-0.0244145
0.058576
-0.0227201
0.0576554
-0.0208414
0.0566809
-0.0188719
0.0556902
-0.0168843
0.0547164
-0.0149343
0.0537862
-0.0130631
0.05292
-0.0112995
0.0521313
-0.00966258
0.051428
-0.00816326
0.0508131
-0.00680649
0.0502857
-0.00559251
0.0498419
-0.00451819
0.0494759
-0.00357791
0.0491804
-0.00276434
0.0489475
-0.00206896
0.048769
-0.0014825
0.048637
-0.000995238
0.0485438
-0.000597288
0.0484824
-0.000278774
0.0484466
-3.00267e-05
0.0484308
0.000158281
0.0484302
0.000294996
0.0484408
0.000388399
0.0484591
0.000446117
0.0484825
0.000475067
0.0485087
0.000481419
0.0485361
0.000470586
0.000447226
0.0485633
0.0796049
-0.0173818
0.077024
-0.0214065
0.0744246
-0.0236324
0.0719443
-0.0244943
0.0695809
-0.0243677
0.0673096
-0.0235334
0.0651135
-0.0222184
0.062992
-0.0205985
0.0609571
-0.0188064
0.0590266
-0.0169414
0.0572193
-0.015077
0.0555512
-0.0132663
0.0540338
-0.0115459
0.0526736
-0.00993953
0.051472
-0.00846122
0.0504262
-0.00711758
0.0495294
-0.00590989
0.0487724
-0.00483566
0.048144
-0.00388982
0.0476317
-0.00306562
0.0472225
-0.00235516
0.0469036
-0.00174991
0.0466623
-0.00124098
0.0464866
-0.000819335
0.0463655
-0.000475961
0.046289
-0.000202002
0.0462481
1.11298e-05
0.046235
0.000171656
0.0462429
0.000287349
0.0462661
0.000365455
0.0462997
0.000412642
0.04634
0.000434951
0.0463838
0.000437766
0.0464286
0.000425811
0.000403149
0.0464728
0.0892398
-0.0149377
0.0858421
-0.018008
0.0821114
-0.0199011
0.0783419
-0.0207246
0.0746664
-0.0206919
0.0711473
-0.0200141
0.0678149
-0.0188857
0.0646874
-0.0174708
0.0617791
-0.0158979
0.0591014
-0.0142636
0.056662
-0.0126377
0.0544644
-0.0110687
0.052507
-0.0095887
0.0507842
-0.00821689
0.049286
-0.00696331
0.0479996
-0.00583139
0.0469097
-0.0048201
0.0459992
-0.00392538
0.0452507
-0.00314138
0.0446462
-0.00246108
0.044168
-0.00187691
0.0437992
-0.00138098
0.0435238
-0.000965369
0.0433269
-0.00062219
0.0431949
-0.000343727
0.0431157
-0.000122491
0.0430784
4.872e-05
0.0430736
0.000176754
0.0430932
0.000268064
0.0431302
0.000328648
0.0431791
0.000364015
0.0432351
0.000379149
0.0432945
0.000378492
0.0433545
0.000365934
0.000344822
0.0434128
0.0920082
-0.0121043
0.0882472
-0.0142461
0.0840014
-0.0156545
0.0795815
-0.0163039
0.0751855
-0.0162952
0.0709391
-0.015767
0.0669195
-0.0148655
0.0631731
-0.0137239
0.0597266
-0.012451
0.0565934
-0.0111301
0.0537769
-0.00982092
0.0512725
-0.00856426
0.0490696
-0.00738591
0.0471531
-0.00630052
0.0455044
-0.00531476
0.0441027
-0.00442989
0.042926
-0.0036436
0.0419519
-0.00295142
0.0411581
-0.00234763
0.0405229
-0.00182588
0.0400256
-0.00137957
0.0396468
-0.00100207
0.0393685
-0.000686871
0.0391741
-0.000427613
0.0390489
-0.000218171
0.0389793
-5.26502e-05
0.0389538
7.45658e-05
0.038962
0.000168802
0.0389953
0.000235046
0.0390463
0.000277936
0.0391088
0.000301713
0.0391779
0.000310219
0.0392497
0.000306866
0.0393211
0.000294644
0.000276119
0.0393899
0.0883365
-0.00903246
0.084468
-0.0103766
0.0801071
-0.0112926
0.0755213
-0.0117172
0.0709161
-0.0116892
0.0664414
-0.0112916
0.0621999
-0.0106233
0.0582567
-0.00978001
0.0546489
-0.00884266
0.051393
-0.00787378
0.0484906
-0.00691829
0.0459328
-0.00600627
0.0437031
-0.00515615
0.0417803
-0.00437776
0.0401404
-0.00367494
0.0387579
-0.00304753
0.0376071
-0.00249288
0.0366625
-0.00200693
0.0358997
-0.00158489
0.0352956
-0.00122169
0.0348283
-0.000912208
0.0344778
-0.000651461
0.0342258
-0.000434621
0.0340555
-0.000257065
0.033952
-0.000114375
0.033902
-2.34715e-06
0.0338938
8.30094e-05
0.0339175
0.000145455
0.0339643
0.000188511
0.034027
0.000215435
0.0340998
0.000229212
0.0341776
0.000232531
0.0342568
0.000227792
0.0343345
0.000217078
0.000202191
0.0344085
0.0785728
-0.00591234
0.0748423
-0.00664537
0.0707024
-0.00715206
0.0663606
-0.00737486
0.0619972
-0.0073252
0.0577553
-0.00704915
0.0537391
-0.00660659
0.0500168
-0.00605735
0.0466274
-0.00545295
0.0435871
-0.0048332
0.0408954
-0.00422651
0.0385407
-0.00365145
0.0365036
-0.00311903
0.0347605
-0.00263463
0.0332854
-0.00219988
0.0320519
-0.00181392
0.0310335
-0.00147448
0.0302052
-0.00117849
0.0295431
-0.000922551
0.0290249
-0.000703204
0.0286301
-0.000517067
0.0283399
-0.000360893
0.0281372
-0.000231605
0.0280069
-0.00012629
0.0279351
-4.21881e-05
0.0279099
2.33031e-05
0.0279206
7.26484e-05
0.0279582
0.000108161
0.028015
0.000132001
0.0280845
0.000146168
0.0281614
0.000152485
0.0282415
0.000152603
0.0283214
0.000147978
0.0283986
0.000139893
0.000129428
0.0284713
0.0630135
-0.00305566
0.0597444
-0.00337633
0.0561879
-0.00359565
0.0524923
-0.00367947
0.0487981
-0.00363119
0.0452221
-0.00347345
0.0418517
-0.00323637
0.0387442
-0.00295007
0.0359312
-0.00264027
0.0334244
-0.00232661
0.0312204
-0.00202278
0.0293062
-0.00173744
0.0276625
-0.00147542
0.0262667
-0.00123882
0.0250948
-0.00102789
0.0241229
-0.000841779
0.0233278
-0.000678992
0.0226876
-0.000537756
0.0221818
-0.000416203
0.0217918
-0.000312499
0.0215003
-0.000224895
0.021292
-0.000151747
0.0211527
-9.15233e-05
0.02107
-4.27831e-05
0.0210327
-4.18234e-06
0.0210311
2.55521e-05
0.0210567
4.76104e-05
0.0211022
6.31174e-05
0.0211615
7.31144e-05
0.0212293
7.85688e-05
0.0213016
8.03608e-05
0.021375
7.92837e-05
0.0214469
7.60425e-05
0.0215154
7.1246e-05
6.54199e-05
0.0215792
0.0419665
-0.000907989
0.0395818
-0.000992136
0.0370322
-0.00104669
0.0344133
-0.00106128
0.0318192
-0.00103769
0.0293285
-0.000983468
0.0269995
-0.000907972
0.0248691
-0.000820231
0.0229559
-0.000727679
0.0212646
-0.000635784
0.0197896
-0.000548169
0.0185189
-0.000466987
0.0174366
-0.000393296
0.0165253
-0.000327426
0.0157668
-0.000269217
0.0151436
-0.000218259
0.0146391
-0.000173992
0.0142378
-0.00013583
0.0139255
-0.000103177
0.0136893
-7.549e-05
0.0135175
-5.22438e-05
0.0133997
-3.2978e-05
0.0133263
-1.72463e-05
0.013289
-4.65735e-06
0.0132804
5.17806e-06
0.013294
1.26017e-05
0.0133242
1.79596e-05
0.0133662
2.15515e-05
0.013416
2.36816e-05
0.0134701
2.46054e-05
0.013526
2.4581e-05
0.0135814
2.3815e-05
0.0136348
2.25144e-05
0.0136851
2.0833e-05
1.89263e-05
0.0137313
0.0157414
0.0147491
0.0137023
0.012641
0.0116032
0.0106196
0.00971154
0.00889123
0.00816347
0.00752763
0.00697941
0.0065124
0.00611909
0.00579168
0.00552249
0.00530428
0.00513036
0.00499462
0.00489155
0.00481617
0.00476404
0.00473117
0.00471404
0.00470948
0.00471475
0.00472743
0.00474545
0.00476705
0.00479076
0.00481538
0.00483996
0.00486377
0.00488626
0.00490707
0.00492596
0.00509175
1.7029e-05
0.00507689
1.49993e-05
0.00506403
1.30025e-05
0.00505307
1.10991e-05
0.00504388
9.32983e-06
0.00503629
7.72093e-06
0.00503012
6.28492e-06
0.0050252
5.02616e-06
0.00502136
3.93986e-06
3.01831e-06
0.00501842
0.0141687
5.90896e-05
0.0141315
5.25045e-05
0.0140989
4.5893e-05
0.0140708
3.94925e-05
0.0140469
3.34674e-05
0.014027
2.79291e-05
0.0140106
2.29391e-05
0.0139973
1.8526e-05
0.0139868
1.4687e-05
1.14025e-05
0.0139785
0.0222187
0.00011736
0.0221664
0.000104925
0.0221202
9.22451e-05
0.0220801
7.98252e-05
0.0220457
6.80284e-05
0.0220167
5.71001e-05
0.0219926
4.71897e-05
0.0219729
3.83705e-05
0.0219571
3.06567e-05
2.40189e-05
0.0219446
0.029238
0.000184173
0.0291775
0.000165537
0.0291235
0.000146255
0.0290762
0.000127168
0.0290355
0.000108888
0.0290008
9.18383e-05
0.0289719
7.62863e-05
0.028948
6.23737e-05
0.0289286
5.01454e-05
3.95729e-05
0.0289131
0.035225
0.000252688
0.0351624
0.000228172
0.0351062
0.000202458
0.0350566
0.000176755
0.0350136
0.000151956
0.0349769
0.000128686
0.0349459
0.000107349
0.0349202
8.81725e-05
0.0348992
7.12458e-05
5.65514e-05
0.0348823
0.0401806
0.000316985
0.0401215
0.000287341
0.0400681
0.00025587
0.0400207
0.000224145
0.0399794
0.000193337
0.0399438
0.000164277
0.0399137
0.000137513
0.0398886
0.000113366
0.0398679
9.19735e-05
7.33391e-05
0.0398512
0.0441086
0.000372161
0.0440575
0.000338384
0.0440112
0.000302169
0.0439699
0.00026541
0.0439338
0.000229527
0.0439026
0.000195537
0.043876
0.00016412
0.0438538
0.000135686
0.0438354
0.000110424
8.83581e-05
0.0438204
0.0470147
0.000414395
0.0469755
0.000377591
0.0469398
0.000337851
0.0469079
0.000297315
0.0468799
0.000257597
0.0468556
0.00021986
0.0468348
0.000184891
0.0468174
0.000153168
0.0468029
0.000124925
0.000100208
0.0467911
0.0489069
0.000440952
0.0488822
0.000402264
0.0488597
0.000360335
0.0488396
0.000317452
0.0488219
0.000275347
0.0488065
0.000235273
0.0487933
0.00019808
0.0487822
0.000164295
0.0487729
0.000134177
0.000107787
0.0487654
0.049794
0.00045017
0.0497855
0.000410757
0.0497778
0.000368039
0.0497709
0.000324336
0.0497648
0.000281412
0.0497596
0.00024054
0.049755
0.000202593
0.0497512
0.000168108
0.049748
0.000137354
0.000110395
0.0497454
0.0496852
0.000441454
0.0496935
0.000402495
0.0497011
0.000360416
0.0497079
0.00031746
0.049714
0.000275324
0.0497193
0.000235244
0.0497238
0.000198056
0.0497276
0.00016428
0.0497307
0.000134171
0.000107788
0.0497333
0.0485895
0.000415275
0.048614
0.000377986
0.0486364
0.00033798
0.0486565
0.000297314
0.0486743
0.000257546
0.0486897
0.000219801
0.0487028
0.000184843
0.0487139
0.000153138
0.0487231
0.000124913
0.000100208
0.0487307
0.0465149
0.000373211
0.046554
0.000338831
0.0465897
0.000302292
0.0466216
0.000265379
0.0466496
0.000229441
0.0466739
0.000195447
0.0466946
0.00016405
0.0467121
0.000135641
0.0467265
0.000110403
8.83552e-05
0.0467383
0.0434681
0.000317978
0.0435192
0.000287725
0.0435655
0.000255937
0.0436068
0.000224069
0.043643
0.000193217
0.0436742
0.000164162
0.0437007
0.000137426
0.043723
0.000113309
0.0437414
9.19453e-05
7.33305e-05
0.0437563
0.0394544
0.000253453
0.0395137
0.000228422
0.0395672
0.000202449
0.0396146
0.000176639
0.0396559
0.000151816
0.0396915
0.000128562
0.0397216
0.000107257
0.0397467
8.81135e-05
0.0397673
7.12144e-05
5.65386e-05
0.039784
0.0344773
0.000184627
0.0345401
0.000165631
0.0345963
0.000146175
0.0346459
0.00012703
0.0346889
0.000108744
0.0347256
9.17228e-05
0.0347566
7.61987e-05
0.0347823
6.23198e-05
0.0348033
5.01105e-05
3.95576e-05
0.0348202
0.0285384
0.000117509
0.028599
0.000104866
0.028653
9.21053e-05
0.0287002
7.96617e-05
0.028741
6.78837e-05
0.0287756
5.69771e-05
0.0288046
4.71007e-05
0.0288284
3.83013e-05
0.0288478
3.06121e-05
2.39822e-05
0.0288633
0.0216376
5.89935e-05
0.0216899
5.23251e-05
0.021736
4.56851e-05
0.0217761
3.92903e-05
0.0218105
3.32831e-05
0.0218394
2.77715e-05
0.0218635
2.2805e-05
0.0218831
1.84166e-05
0.021899
1.45953e-05
1.13286e-05
0.0219115
0.0137732
1.68967e-05
0.0138104
1.48517e-05
0.0138429
1.28491e-05
0.0138709
1.09563e-05
0.0138947
9.19552e-06
0.0139146
7.60438e-06
0.013931
6.17945e-06
0.0139443
4.93852e-06
0.0139548
3.86197e-06
2.95614e-06
0.013963
0.00494282
0.00495764
0.00497045
0.00498136
0.00499053
0.0049981
0.00500425
0.00500916
0.005013
0.00501594
0.00501624
2.24763e-06
0.00501469
1.61484e-06
0.00501363
1.10271e-06
0.00501297
6.97319e-07
0.00501261
3.81601e-07
0.00501249
1.43199e-07
0.00501253
-3.29465e-08
0.0050127
-1.56543e-07
0.00501294
-2.3991e-07
0.00501323
-2.89894e-07
0.00501355
-3.16049e-07
0.00501387
-3.22643e-07
0.00501418
-3.16815e-07
0.00501447
-3.00753e-07
0.00501475
-2.7967e-07
0.005015
-2.54216e-07
0.00501522
-2.28169e-07
0.00501541
-2.01134e-07
0.00501559
-1.75878e-07
0.00501573
-1.51343e-07
0.00501586
-1.29638e-07
0.00501597
-1.09327e-07
0.00501606
-9.20824e-08
0.00501613
-7.63098e-08
0.00501619
-6.33934e-08
0.00501625
-5.16896e-08
0.00501629
-4.24248e-08
0.00501633
-3.39509e-08
0.00501636
-2.74263e-08
0.00501638
-2.12792e-08
0.0050164
-1.66008e-08
0.00501642
-1.1964e-08
0.00501644
-8.34952e-09
0.00501646
-4.39248e-09
-4.55629e-10
0.00501647
0.0139723
8.63503e-06
0.0139677
6.34151e-06
0.0139644
4.47063e-06
0.0139622
2.97241e-06
0.0139609
1.79453e-06
0.0139602
8.90011e-07
0.01396
2.12519e-07
0.0139601
-2.77103e-07
0.0139605
-6.16286e-07
0.0139611
-8.34898e-07
0.0139617
-9.61139e-07
0.0139624
-1.01607e-06
0.0139631
-1.01972e-06
0.0139638
-9.85771e-07
0.0139644
-9.27716e-07
0.013965
-8.53598e-07
0.0139655
-7.72046e-07
0.013966
-6.87084e-07
0.0139664
-6.03977e-07
0.0139668
-5.24078e-07
0.0139671
-4.50467e-07
0.0139674
-3.82852e-07
0.0139676
-3.22989e-07
0.0139678
-2.69662e-07
0.013968
-2.23883e-07
0.0139681
-1.83968e-07
0.0139682
-1.50563e-07
0.0139683
-1.21757e-07
0.0139684
-9.80562e-08
0.0139684
-7.74525e-08
0.0139685
-6.04397e-08
0.0139686
-4.49319e-08
0.0139686
-3.14229e-08
0.0139687
-1.75897e-08
-3.39694e-09
0.0139687
0.0219349
1.83964e-05
0.0219277
1.37084e-05
0.0219224
9.86164e-06
0.0219187
6.75856e-06
0.0219162
4.30061e-06
0.0219148
2.39387e-06
0.0219141
9.49718e-07
0.0219139
-1.11647e-07
0.0219142
-8.62321e-07
0.0219147
-1.36442e-06
0.0219154
-1.67229e-06
0.0219163
-1.8309e-06
0.0219171
-1.87856e-06
0.021918
-1.8457e-06
0.0219188
-1.75765e-06
0.0219196
-1.63353e-06
0.0219203
-1.48898e-06
0.021921
-1.33494e-06
0.0219215
-1.18027e-06
0.021922
-1.03042e-06
0.0219225
-8.8981e-07
0.0219228
-7.60425e-07
0.0219232
-6.43972e-07
0.0219234
-5.40433e-07
0.0219237
-4.4999e-07
0.0219238
-3.71561e-07
0.021924
-3.04546e-07
0.0219241
-2.47349e-07
0.0219242
-1.99008e-07
0.0219243
-1.57699e-07
0.0219244
-1.22274e-07
0.0219245
-9.07835e-08
0.0219245
-6.1873e-08
0.0219246
-3.31856e-08
-2.51923e-09
0.0219246
0.028901
3.05754e-05
0.0288918
2.30367e-05
0.0288849
1.68193e-05
0.02888
1.17751e-05
0.0288766
7.75438e-06
0.0288744
4.6113e-06
0.0288732
2.20913e-06
0.0288727
4.22152e-07
0.0288727
-8.61949e-07
0.0288731
-1.74229e-06
0.0288737
-2.30407e-06
0.0288745
-2.61999e-06
0.0288754
-2.75042e-06
0.0288763
-2.74532e-06
0.0288772
-2.64469e-06
0.0288781
-2.48064e-06
0.0288789
-2.27784e-06
0.0288796
-2.05536e-06
0.0288802
-1.82706e-06
0.0288808
-1.60314e-06
0.0288813
-1.39032e-06
0.0288817
-1.19316e-06
0.0288821
-1.01395e-06
0.0288824
-8.53909e-07
0.0288827
-7.12842e-07
0.0288829
-5.90115e-07
0.0288831
-4.84252e-07
0.0288832
-3.93698e-07
0.0288834
-3.1636e-07
0.0288835
-2.50236e-07
0.0288836
-1.92905e-07
0.0288836
-1.42042e-07
0.0288837
-9.48453e-08
0.0288838
-4.83596e-08
1.1665e-09
0.0288838
0.0348689
4.39957e-05
0.0348586
3.34327e-05
0.0348508
2.46834e-05
0.0348451
1.75521e-05
0.0348411
1.18379e-05
0.0348384
7.34409e-06
0.0348367
3.88449e-06
0.0348359
1.28734e-06
0.0348357
-6.01938e-07
0.0348359
-1.91989e-06
0.0348364
-2.78485e-06
0.0348371
-3.29771e-06
0.0348379
-3.54305e-06
0.0348387
-3.59071e-06
0.0348396
-3.49729e-06
0.0348404
-3.30804e-06
0.0348412
-3.0583e-06
0.0348419
-2.77522e-06
0.0348426
-2.47905e-06
0.0348431
-2.18452e-06
0.0348436
-1.90182e-06
0.0348441
-1.63769e-06
0.0348445
-1.39604e-06
0.0348448
-1.17884e-06
0.0348451
-9.8639e-07
0.0348453
-8.17991e-07
0.0348455
-6.72046e-07
0.0348457
-5.46517e-07
0.0348458
-4.38862e-07
0.0348459
-3.46391e-07
0.034846
-2.6605e-07
0.0348461
-1.94706e-07
0.0348462
-1.28757e-07
0.0348462
-6.42902e-08
3.45372e-09
0.0348462
0.0398379
5.73636e-05
0.0398275
4.38779e-05
0.0398196
3.26687e-05
0.0398137
2.34979e-05
0.0398095
1.61188e-05
0.0398066
1.02881e-05
0.0398047
5.77381e-06
0.0398037
2.36108e-06
0.0398033
-1.44279e-07
0.0398033
-1.91447e-06
0.0398036
-3.09919e-06
0.0398041
-3.82658e-06
0.0398048
-4.20434e-06
0.0398056
-4.32174e-06
0.0398063
-4.25141e-06
0.0398071
-4.0516e-06
0.0398078
-3.76806e-06
0.0398084
-3.43611e-06
0.039809
-3.08225e-06
0.0398096
-2.72595e-06
0.0398101
-2.38082e-06
0.0398105
-2.05603e-06
0.0398109
-1.75712e-06
0.0398112
-1.48703e-06
0.0398114
-1.24659e-06
0.0398116
-1.03525e-06
0.0398118
-8.51338e-07
0.039812
-6.92506e-07
0.0398121
-5.55852e-07
0.0398122
-4.38155e-07
0.0398123
-3.35885e-07
0.0398124
-2.45268e-07
0.0398125
-1.6219e-07
0.0398125
-8.20779e-08
2.166e-10
0.0398126
0.0438084
6.93909e-05
0.043799
5.33374e-05
0.0437918
3.99571e-05
0.0437863
2.89781e-05
0.0437824
2.0116e-05
0.0437796
1.3088e-05
0.0437778
7.6235e-06
0.0437767
3.47096e-06
0.0437762
4.02039e-07
0.0437761
-1.78624e-06
0.0437763
-3.27091e-06
0.0437767
-4.2038e-06
0.0437772
-4.71298e-06
0.0437778
-4.90478e-06
0.0437784
-4.86604e-06
0.043779
-4.66656e-06
0.0437796
-4.36139e-06
0.0437802
-3.99317e-06
0.0437807
-3.5941e-06
0.0437811
-3.18791e-06
0.0437815
-2.79143e-06
0.0437819
-2.41606e-06
0.0437822
-2.0689e-06
0.0437825
-1.75386e-06
0.0437827
-1.47234e-06
0.0437829
-1.224e-06
0.0437831
-1.0072e-06
0.0437832
-8.19416e-07
0.0437833
-6.57505e-07
0.0437834
-5.17936e-07
0.0437835
-3.9683e-07
0.0437836
-2.9012e-07
0.0437836
-1.93395e-07
0.0437837
-1.01899e-07
-1.03482e-08
0.0437838
0.0467816
7.89197e-05
0.0467741
6.08673e-05
0.0467683
4.57913e-05
0.046764
3.3395e-05
0.0467607
2.33661e-05
0.0467585
1.53925e-05
0.0467569
9.17426e-06
0.046756
4.43193e-06
0.0467555
9.11006e-07
0.0467553
-1.61509e-06
0.0467554
-3.34452e-06
0.0467557
-4.44746e-06
0.046756
-5.06782e-06
0.0467565
-5.32522e-06
0.0467569
-5.31766e-06
0.0467574
-5.12398e-06
0.0467578
-4.80662e-06
0.0467582
-4.41395e-06
0.0467586
-3.98276e-06
0.046759
-3.54017e-06
0.0467593
-3.10561e-06
0.0467596
-2.69229e-06
0.0467598
-2.30862e-06
0.04676
-1.9593e-06
0.0467602
-1.64627e-06
0.0467604
-1.3694e-06
0.0467605
-1.12715e-06
0.0467606
-9.16914e-07
0.0467607
-7.35483e-07
0.0467608
-5.79131e-07
0.0467609
-4.4394e-07
0.0467609
-3.25708e-07
0.046761
-2.20144e-07
0.046761
-1.22643e-07
-2.85036e-08
0.0467611
0.0487593
8.5032e-05
0.0487545
6.57127e-05
0.0487507
4.95592e-05
0.0487479
3.62601e-05
0.0487458
2.54859e-05
0.0487443
1.69066e-05
0.0487433
1.02042e-05
0.0487426
5.08156e-06
0.0487423
1.26812e-06
0.0487421
-1.47773e-06
0.0487422
-3.3673e-06
0.0487423
-4.5825e-06
0.0487425
-5.27716e-06
0.0487428
-5.57946e-06
0.0487431
-5.59441e-06
0.0487433
-5.4067e-06
0.0487436
-5.08341e-06
0.0487439
-4.67671e-06
0.0487441
-4.22624e-06
0.0487444
-3.7614e-06
0.0487446
-3.30324e-06
0.0487447
-2.86621e-06
0.0487449
-2.45955e-06
0.048745
-2.08854e-06
0.0487451
-1.75543e-06
0.0487452
-1.46035e-06
0.0487453
-1.20178e-06
0.0487454
-9.77207e-07
0.0487455
-7.83377e-07
0.0487455
-6.16663e-07
0.0487456
-4.73153e-07
0.0487456
-3.48908e-07
0.0487457
-2.39896e-07
0.0487457
-1.42163e-07
-5.16997e-08
0.0487458
0.0497433
8.71392e-05
0.0497416
6.73867e-05
0.0497403
5.08639e-05
0.0497393
3.72544e-05
0.0497386
2.62234e-05
0.0497381
1.74346e-05
0.0497377
1.05644e-05
0.0497375
5.30957e-06
0.0497374
1.3942e-06
0.0497373
-1.42851e-06
0.0497373
-3.37421e-06
0.0497374
-4.62898e-06
0.0497375
-5.34986e-06
0.0497376
-5.6682e-06
0.0497377
-5.69119e-06
0.0497378
-5.5058e-06
0.0497379
-5.18047e-06
0.049738
-4.76892e-06
0.049738
-4.31157e-06
0.0497381
-3.83884e-06
0.0497382
-3.37212e-06
0.0497383
-2.92654e-06
0.0497383
-2.51139e-06
0.0497384
-2.13242e-06
0.0497384
-1.79178e-06
0.0497385
-1.48991e-06
0.0497385
-1.22518e-06
0.0497385
-9.9536e-07
0.0497385