/*--------------------------------*- C++ -*----------------------------------*\
| =========                 |                                                 |
| \\      /  F ield         | OpenFOAM: The Open Source CFD Toolbox           |
|  \\    /   O peration     | Version:  2406                                  |
|   \\  /    A nd           | Website:  www.openfoam.com                      |
|    \\/     M anipulation  |                                                 |
\*---------------------------------------------------------------------------*/
FoamFile
{
    version     2.0;
    format      ascii;
    arch        "LSB;label=32;scalar=64";
    class       volScalarField;
    location    "22";
    object      p;
}
// * * * * * * * * * * * * * * * * * * * * * * * * * * * * * * * * * * * * * //

dimensions      [0 2 -2 0 0 0 0];

internalField   nonuniform List<scalar> 
2000
(
3.60339
2.75577
2.32096
2.13732
2.03103
1.96066
1.91219
1.876
1.84653
1.82091
2.81948
2.50274
2.27556
2.14125
2.04898
1.9811
1.93019
1.89047
1.85781
1.82959
2.43036
2.33919
2.22737
2.13209
2.05531
1.99315
1.94289
1.90183
1.86732
1.83731
2.26272
2.23413
2.17417
2.10812
2.04772
1.99438
1.94811
1.90835
1.87382
1.8432
2.16546
2.15872
2.12627
2.08165
2.03552
1.99106
1.9498
1.91246
1.87883
1.84823
2.10409
2.10593
2.08839
2.05832
2.02331
1.98654
1.95013
1.91551
1.88314
1.8529
2.06576
2.07039
2.06055
2.03973
2.01275
1.98207
1.94987
1.91784
1.88684
1.85711
2.04202
2.04725
2.04129
2.02607
2.00452
1.97829
1.94937
1.91952
1.88976
1.86059
2.02813
2.03331
2.02923
2.01718
1.99893
1.97558
1.94889
1.92059
1.89177
1.86307
2.02168
2.02674
2.02344
2.0128
1.99611
1.97417
1.94861
1.92111
1.89279
1.86436
2.02168
2.02674
2.02344
2.0128
1.99611
1.97417
1.94861
1.92111
1.89279
1.86436
2.02813
2.03331
2.02923
2.01718
1.99893
1.97558
1.94889
1.92059
1.89177
1.86307
2.04203
2.04725
2.04129
2.02608
2.00452
1.97829
1.94937
1.91952
1.88976
1.86059
2.06576
2.07039
2.06054
2.03972
2.01275
1.98208
1.94987
1.91785
1.88684
1.85711
2.10408
2.10591
2.08837
2.05832
2.02332
1.98654
1.95013
1.91552
1.88315
1.8529
2.16547
2.15873
2.12627
2.08166
2.03554
1.99107
1.94981
1.91247
1.87884
1.84824
2.26275
2.23419
2.1742
2.10813
2.04772
1.99437
1.94811
1.90835
1.87383
1.8432
2.43039
2.33921
2.22737
2.13207
2.05528
1.99312
1.94287
1.90181
1.86732
1.83731
2.81946
2.50272
2.27551
2.14121
2.04896
1.9811
1.93019
1.89047
1.85781
1.8296
3.60336
2.75575
2.32096
2.13732
2.03105
1.96069
1.91222
1.87602
1.84654
1.82092
1.79758
1.77567
1.75464
1.73415
1.71398
1.69402
1.67416
1.65435
1.63456
1.61476
1.59495
1.57511
1.55524
1.53534
1.51542
1.49547
1.4755
1.45552
1.43551
1.41549
1.39546
1.37542
1.35538
1.33532
1.31526
1.2952
1.27513
1.25506
1.23498
1.21491
1.19483
1.17475
1.15467
1.13459
1.11451
1.80422
1.78073
1.75847
1.73705
1.71618
1.69568
1.67541
1.65529
1.63526
1.61528
1.59532
1.57538
1.55544
1.53548
1.51552
1.49554
1.47555
1.45555
1.43553
1.4155
1.39547
1.37543
1.35537
1.33532
1.31526
1.29519
1.27512
1.25505
1.23498
1.21491
1.19483
1.17475
1.15467
1.13459
1.11451
1.81036
1.78553
1.76221
1.73994
1.71841
1.69738
1.67671
1.65627
1.636
1.61583
1.59574
1.57568
1.55566
1.53564
1.51563
1.49562
1.47561
1.45558
1.43555
1.41552
1.39548
1.37543
1.35538
1.33532
1.31526
1.29519
1.27512
1.25505
1.23498
1.2149
1.19483
1.17475
1.15467
1.13459
1.11451
1.81542
1.78974
1.76563
1.74269
1.72059
1.69911
1.67806
1.65732
1.63681
1.61646
1.59621
1.57605
1.55593
1.53585
1.51578
1.49573
1.47569
1.45564
1.4356
1.41555
1.3955
1.37544
1.35538
1.33532
1.31526
1.29519
1.27512
1.25505
1.23498
1.2149
1.19483
1.17475
1.15467
1.13459
1.11451
1.82004
1.79378
1.76905
1.74551
1.72289
1.70096
1.67954
1.65849
1.63773
1.61717
1.59676
1.57647
1.55625
1.53609
1.51597
1.49587
1.47579
1.45572
1.43565
1.41559
1.39552
1.37546
1.3554
1.33533
1.31526
1.29519
1.27512
1.25505
1.23498
1.2149
1.19482
1.17475
1.15467
1.13459
1.11451
1.82454
1.79784
1.77257
1.74848
1.72535
1.70297
1.68116
1.65978
1.63875
1.61797
1.59739
1.57695
1.55662
1.53637
1.51618
1.49603
1.47591
1.45581
1.43572
1.41563
1.39556
1.37549
1.35541
1.33534
1.31527
1.2952
1.27513
1.25505
1.23498
1.2149
1.19482
1.17475
1.15467
1.13459
1.11451
1.82875
1.80174
1.77602
1.75145
1.72784
1.70502
1.68282
1.66112
1.63982
1.61881
1.59804
1.57746
1.55702
1.53667
1.51641
1.4962
1.47604
1.4559
1.43579
1.41569
1.3956
1.37551
1.35543
1.33536
1.31528
1.29521
1.27513
1.25506
1.23498
1.2149
1.19483
1.17475
1.15467
1.13459
1.11451
1.83233
1.80513
1.77907
1.7541
1.73009
1.70689
1.68435
1.66236
1.6408
1.61959
1.59866
1.57794
1.55738
1.53696
1.51663
1.49637
1.47616
1.45599
1.43586
1.41574
1.39563
1.37554
1.35545
1.33537
1.31529
1.29521
1.27514
1.25506
1.23498
1.21491
1.19483
1.17475
1.15467
1.13459
1.11451
1.83493
1.80764
1.78136
1.75611
1.7318
1.70832
1.68553
1.66332
1.64157
1.6202
1.59913
1.57831
1.55767
1.53718
1.5168
1.4965
1.47626
1.45607
1.43591
1.41578
1.39567
1.37556
1.35547
1.33539
1.3153
1.29522
1.27514
1.25506
1.23499
1.21491
1.19483
1.17475
1.15467
1.13459
1.11451
1.83629
1.80897
1.78258
1.75719
1.73273
1.7091
1.68618
1.66384
1.64199
1.62053
1.5994
1.57852
1.55783
1.5373
1.51689
1.49657
1.47632
1.45611
1.43595
1.41581
1.39569
1.37558
1.35548
1.3354
1.31531
1.29523
1.27515
1.25507
1.23499
1.21491
1.19483
1.17475
1.15467
1.13459
1.11451
1.83629
1.80897
1.78258
1.75719
1.73273
1.7091
1.68618
1.66384
1.64199
1.62054
1.5994
1.57852
1.55784
1.53731
1.5169
1.49658
1.47632
1.45612
1.43595
1.41581
1.39569
1.37559
1.35549
1.3354
1.31532
1.29524
1.27515
1.25507
1.23499
1.21492
1.19484
1.17475
1.15467
1.13459
1.11451
1.83492
1.80764
1.78136
1.75611
1.7318
1.70832
1.68553
1.66332
1.64157
1.62021
1.59914
1.57832
1.55768
1.53719
1.51681
1.49651
1.47628
1.45609
1.43593
1.4158
1.39569
1.37558
1.35549
1.3354
1.31532
1.29524
1.27516
1.25508
1.235
1.21492
1.19484
1.17476
1.15468
1.1346
1.11451
1.83232
1.80513
1.77907
1.7541
1.73009
1.70689
1.68436
1.66237
1.64081
1.6196
1.59867
1.57795
1.5574
1.53698
1.51665
1.49639
1.47619
1.45602
1.43589
1.41577
1.39567
1.37557
1.35549
1.3354
1.31532
1.29524
1.27516
1.25508
1.235
1.21492
1.19484
1.17476
1.15468
1.1346
1.11452
1.82875
1.80174
1.77602
1.75145
1.72784
1.70502
1.68283
1.66113
1.63982
1.61882
1.59806
1.57748
1.55704
1.5367
1.51644
1.49624
1.47607
1.45594
1.43583
1.41573
1.39564
1.37556
1.35548
1.3354
1.31532
1.29524
1.27517
1.25509
1.23501
1.21493
1.19485
1.17476
1.15468
1.1346
1.11452
1.82454
1.79784
1.77257
1.74848
1.72536
1.70297
1.68116
1.65979
1.63876
1.61799
1.59741
1.57698
1.55665
1.53641
1.51622
1.49607
1.47595
1.45585
1.43577
1.41569
1.39561
1.37554
1.35547
1.33539
1.31532
1.29524
1.27517
1.25509
1.23501
1.21493
1.19485
1.17477
1.15468
1.1346
1.11452
1.82005
1.79378
1.76905
1.74551
1.7229
1.70097
1.67955
1.6585
1.63774
1.61719
1.59679
1.5765
1.55629
1.53613
1.51601
1.49592
1.47584
1.45577
1.43571
1.41565
1.39559
1.37552
1.35546
1.33539
1.31532
1.29524
1.27517
1.25509
1.23501
1.21493
1.19485
1.17477
1.15469
1.1346
1.11452
1.81542
1.78974
1.76564
1.7427
1.7206
1.69912
1.67807
1.65734
1.63683
1.61648
1.59625
1.57608
1.55597
1.5359
1.51584
1.49579
1.47575
1.45571
1.43566
1.41562
1.39557
1.37551
1.35545
1.33538
1.31532
1.29525
1.27517
1.25509
1.23502
1.21493
1.19485
1.17477
1.15469
1.1346
1.11452
1.81036
1.78554
1.76222
1.73995
1.71842
1.6974
1.67673
1.65629
1.63603
1.61587
1.59578
1.57573
1.55571
1.5357
1.5157
1.49569
1.47568
1.45566
1.43563
1.4156
1.39555
1.3755
1.35545
1.33539
1.31532
1.29525
1.27517
1.2551
1.23502
1.21494
1.19486
1.17477
1.15469
1.13461
1.11452
1.80423
1.78073
1.75848
1.73706
1.7162
1.6957
1.67543
1.65532
1.63529
1.61532
1.59537
1.57544
1.5555
1.53555
1.51559
1.49562
1.47563
1.45563
1.43561
1.41559
1.39555
1.3755
1.35545
1.33539
1.31532
1.29525
1.27518
1.2551
1.23502
1.21494
1.19486
1.17477
1.15469
1.13461
1.11452
1.7976
1.77569
1.75465
1.73416
1.714
1.69404
1.67419
1.65438
1.6346
1.61481
1.595
1.57517
1.55531
1.53542
1.5155
1.49556
1.47559
1.45561
1.4356
1.41559
1.39555
1.37551
1.35546
1.3354
1.31533
1.29526
1.27518
1.25511
1.23503
1.21494
1.19486
1.17478
1.15469
1.13461
1.11452
1.09443
1.07435
1.05427
1.03419
1.01411
0.994023
0.973941
0.953859
0.933776
0.913693
1.09443
1.07435
1.05427
1.03419
1.01411
0.994024
0.973941
0.953859
0.933776
0.913694
1.09443
1.07435
1.05427
1.03419
1.0141
0.994023
0.973941
0.953858
0.933776
0.913693
1.09443
1.07435
1.05427
1.03419
1.0141
0.994022
0.97394
0.953858
0.933775
0.913693
1.09443
1.07435
1.05427
1.03419
1.0141
0.994022
0.97394
0.953857
0.933775
0.913693
1.09443
1.07435
1.05427
1.03419
1.0141
0.994021
0.973939
0.953857
0.933775
0.913693
1.09443
1.07435
1.05427
1.03418
1.0141
0.994021
0.973939
0.953857
0.933774
0.913692
1.09443
1.07435
1.05427
1.03418
1.0141
0.994021
0.973938
0.953856
0.933774
0.913692
1.09443
1.07435
1.05427
1.03418
1.0141
0.99402
0.973938
0.953856
0.933774
0.913691
1.09443
1.07435
1.05427
1.03418
1.0141
0.99402
0.973938
0.953856
0.933773
0.913691
1.09443
1.07435
1.05427
1.03418
1.0141
0.99402
0.973938
0.953855
0.933773
0.913691
1.09443
1.07435
1.05427
1.03418
1.0141
0.99402
0.973937
0.953855
0.933773
0.91369
1.09443
1.07435
1.05427
1.03419
1.0141
0.99402
0.973937
0.953855
0.933772
0.91369
1.09443
1.07435
1.05427
1.03419
1.0141
0.99402
0.973937
0.953855
0.933772
0.91369
1.09444
1.07435
1.05427
1.03419
1.0141
0.99402
0.973937
0.953854
0.933772
0.913689
1.09444
1.07435
1.05427
1.03419
1.0141
0.99402
0.973937
0.953854
0.933772
0.913689
1.09444
1.07435
1.05427
1.03419
1.0141
0.99402
0.973937
0.953855
0.933771
0.91369
1.09444
1.07435
1.05427
1.03419
1.0141
0.99402
0.973938
0.953854
0.933772
0.913688
1.09444
1.07435
1.05427
1.03419
1.0141
0.99402
0.973937
0.953854
0.933771
0.913689
1.09444
1.07435
1.05427
1.03419
1.0141
0.994019
0.973936
0.953853
0.93377
0.913688
0.893611
0.873528
0.853446
0.833363
0.813281
0.793199
0.773116
0.753034
0.732952
0.71287
0.692788
0.672706
0.652624
0.632542
0.61246
0.592378
0.572297
0.552215
0.532133
0.512052
0.49197
0.471889
0.451807
0.431726
0.411644
0.391563
0.371481
0.351399
0.331318
0.311236
0.291154
0.271072
0.25099
0.230908
0.210825
0.893611
0.873529
0.853446
0.833364
0.813282
0.793199
0.773117
0.753035
0.732953
0.71287
0.692788
0.672706
0.652624
0.632542
0.612461
0.592379
0.572297
0.552215
0.532134
0.512052
0.49197
0.471889
0.451807
0.431726
0.411644
0.391562
0.371481
0.351399
0.331318
0.311236
0.291155
0.271073
0.250991
0.230909
0.210827
0.893611
0.873528
0.853446
0.833364
0.813281
0.793199
0.773117
0.753034
0.732952
0.71287
0.692788
0.672706
0.652624
0.632542
0.612461
0.592379
0.572297
0.552215
0.532134
0.512052
0.49197
0.471889
0.451807
0.431726
0.411644
0.391563
0.371481
0.3514
0.331318
0.311237
0.291155
0.271074
0.250992
0.23091
0.210828
0.893611
0.873528
0.853446
0.833363
0.813281
0.793199
0.773117
0.753034
0.732952
0.71287
0.692788
0.672706
0.652624
0.632542
0.612461
0.592379
0.572297
0.552215
0.532134
0.512052
0.49197
0.471889
0.451807
0.431726
0.411644
0.391563
0.371481
0.3514
0.331318
0.311237
0.291155
0.271073
0.250991
0.230909
0.210827
0.89361
0.873528
0.853446
0.833363
0.813281
0.793199
0.773117
0.753034
0.732952
0.71287
0.692788
0.672706
0.652624
0.632542
0.612461
0.592379
0.572297
0.552215
0.532134
0.512052
0.49197
0.471889
0.451807
0.431726
0.411644
0.391562
0.371481
0.351399
0.331318
0.311236
0.291154
0.271072
0.25099
0.230908
0.210826
0.89361
0.873528
0.853446
0.833363
0.813281
0.793199
0.773116
0.753034
0.732952
0.71287
0.692788
0.672706
0.652624
0.632542
0.612461
0.592379
0.572297
0.552215
0.532134
0.512052
0.49197
0.471889
0.451807
0.431726
0.411644
0.391562
0.371481
0.351399
0.331318
0.311236
0.291154
0.271072
0.25099
0.230907
0.210825
0.89361
0.873528
0.853445
0.833363
0.813281
0.793199
0.773116
0.753034
0.732952
0.71287
0.692788
0.672706
0.652624
0.632542
0.612461
0.592379
0.572297
0.552215
0.532134
0.512052
0.49197
0.471889
0.451807
0.431726
0.411644
0.391562
0.371481
0.351399
0.331317
0.311236
0.291154
0.271072
0.250989
0.230907
0.210824
0.89361
0.873527
0.853445
0.833363
0.81328
0.793198
0.773116
0.753034
0.732952
0.71287
0.692788
0.672706
0.652624
0.632542
0.612461
0.592379
0.572297
0.552215
0.532134
0.512052
0.49197
0.471889
0.451807
0.431726
0.411644
0.391562
0.371481
0.351399
0.331317
0.311236
0.291154
0.271071
0.250989
0.230906
0.210823
0.893609
0.873527
0.853445
0.833362
0.81328
0.793198
0.773116
0.753034
0.732952
0.71287
0.692788
0.672706
0.652624
0.632542
0.612461
0.592379
0.572297
0.552215
0.532134
0.512052
0.49197
0.471889
0.451807
0.431726
0.411644
0.391562
0.371481
0.351399
0.331317
0.311235
0.291153
0.271071
0.250989
0.230906
0.210822
0.893609
0.873526
0.853444
0.833362
0.81328
0.793198
0.773116
0.753034
0.732952
0.71287
0.692788
0.672706
0.652624
0.632542
0.61246
0.592379
0.572297
0.552215
0.532134
0.512052
0.49197
0.471889
0.451807
0.431726
0.411644
0.391562
0.371481
0.351399
0.331317
0.311235
0.291153
0.271071
0.250988
0.230905
0.210822
0.893608
0.873526
0.853444
0.833362
0.81328
0.793198
0.773115
0.753033
0.732952
0.71287
0.692788
0.672706
0.652624
0.632542
0.61246
0.592379
0.572297
0.552215
0.532134
0.512052
0.49197
0.471889
0.451807
0.431726
0.411644
0.391562
0.371481
0.351399
0.331317
0.311235
0.291153
0.271071
0.250988
0.230905
0.210822
0.893608
0.873526
0.853444
0.833361
0.813279
0.793197
0.773115
0.753033
0.732951
0.712869
0.692788
0.672706
0.652624
0.632542
0.61246
0.592379
0.572297
0.552215
0.532134
0.512052
0.49197
0.471889
0.451807
0.431726
0.411644
0.391562
0.371481
0.351399
0.331317
0.311235
0.291153
0.271071
0.250989
0.230906
0.210823
0.893608
0.873525
0.853443
0.833361
0.813279
0.793197
0.773115
0.753033
0.732951
0.712869
0.692787
0.672706
0.652624
0.632542
0.61246
0.592379
0.572297
0.552215
0.532134
0.512052
0.49197
0.471889
0.451807
0.431726
0.411644
0.391562
0.371481
0.351399
0.331317
0.311236
0.291154
0.271071
0.250989
0.230906
0.210823
0.893607
0.873525
0.853443
0.833361
0.813279
0.793197
0.773115
0.753033
0.732951
0.712869
0.692787
0.672706
0.652624
0.632542
0.61246
0.592379
0.572297
0.552215
0.532134
0.512052
0.49197
0.471889
0.451807
0.431726
0.411644
0.391562
0.371481
0.351399
0.331317
0.311236
0.291154
0.271072
0.250989
0.230907
0.210824
0.893607
0.873525
0.853443
0.83336
0.813279
0.793196
0.773115
0.753032
0.732951
0.712869
0.692787
0.672705
0.652624
0.632542
0.612461
0.592378
0.572297
0.552215
0.532134
0.512052
0.491971
0.471889
0.451807
0.431725
0.411644
0.391562
0.371481
0.351399
0.331318
0.311236
0.291154
0.271072
0.25099
0.230907
0.210826
0.893607
0.873525
0.853442
0.83336
0.813278
0.793196
0.773114
0.753033
0.732951
0.712869
0.692787
0.672705
0.652624
0.632542
0.61246
0.592379
0.572297
0.552215
0.532134
0.512052
0.49197
0.471889
0.451807
0.431726
0.411644
0.391563
0.371481
0.3514
0.331318
0.311236
0.291154
0.271073
0.250991
0.230909
0.210826
0.893606
0.873525
0.853442
0.833361
0.813278
0.793197
0.773114
0.753033
0.73295
0.712869
0.692787
0.672706
0.652623
0.632542
0.61246
0.592379
0.572296
0.552216
0.532133
0.512053
0.49197
0.471889
0.451807
0.431726
0.411644
0.391563
0.371481
0.3514
0.331318
0.311237
0.291155
0.271074
0.250991
0.23091
0.210827
0.893607
0.873524
0.853443
0.83336
0.813279
0.793196
0.773115
0.753032
0.732951
0.712868
0.692788
0.672705
0.652624
0.632541
0.612461
0.592378
0.572297
0.552215
0.532134
0.512052
0.491971
0.471888
0.451808
0.431725
0.411645
0.391562
0.371482
0.351399
0.331319
0.311236
0.291156
0.271073
0.250992
0.230909
0.210828
0.893606
0.873524
0.853442
0.83336
0.813278
0.793196
0.773114
0.753032
0.73295
0.712869
0.692787
0.672705
0.652623
0.632542
0.61246
0.592379
0.572297
0.552215
0.532134
0.512052
0.49197
0.471889
0.451807
0.431726
0.411644
0.391563
0.371481
0.3514
0.331318
0.311236
0.291155
0.271073
0.250991
0.230909
0.210827
0.893606
0.873523
0.853441
0.833359
0.813277
0.793196
0.773114
0.753032
0.73295
0.712868
0.692787
0.672705
0.652623
0.632541
0.61246
0.592378
0.572296
0.552215
0.532133
0.512052
0.49197
0.471889
0.451807
0.431726
0.411644
0.391562
0.371481
0.351399
0.331318
0.311236
0.291154
0.271072
0.25099
0.230907
0.210825
0.190742
0.170659
0.150575
0.130493
0.11041
0.090323
0.0702367
0.0501706
0.0300744
0.00998258
0.190744
0.17066
0.150577
0.130496
0.11041
0.0903114
0.070242
0.0502584
0.0300143
0.00986257
0.190745
0.170662
0.15058
0.130501
0.110415
0.0903143
0.0702478
0.0503028
0.0300354
0.0098756
0.190744
0.170661
0.15058
0.1305
0.110414
0.0903122
0.0702486
0.0502998
0.0300083
0.00987154
0.190743
0.17066
0.150578
0.130498
0.110412
0.0903104
0.070249
0.0502976
0.0299658
0.00986386
0.190742
0.170659
0.150577
0.130496
0.110408
0.0903078
0.070253
0.050295
0.0299286
0.00986197
0.190741
0.170657
0.150575
0.130493
0.110404
0.0903042
0.0702516
0.0502926
0.0298932
0.00986092
0.19074
0.170656
0.150573
0.13049
0.1104
0.0902999
0.0702507
0.0502865
0.0298617
0.00985948
0.190739
0.170655
0.150571
0.130488
0.110396
0.0902967
0.0702481
0.0502818
0.0298384
0.0098585
0.190738
0.170654
0.15057
0.130486
0.110395
0.0902949
0.0702475
0.0502796
0.0298265
0.00985862
0.190738
0.170654
0.150571
0.130487
0.110395
0.0902957
0.0702486
0.0502796
0.0298278
0.0098603
0.190739
0.170655
0.150572
0.130488
0.110397
0.0902982
0.0702505
0.0502845
0.0298416
0.00986309
0.19074
0.170656
0.150574
0.130491
0.110401
0.0903026
0.070255
0.0502889
0.029867
0.00986686
0.190741
0.170658
0.150576
0.130494
0.110406
0.0903073
0.0702568
0.050297
0.0298998
0.00987026
0.190742
0.17066
0.150578
0.130498
0.11041
0.0903121
0.0702593
0.0502997
0.0299365
0.00987259
0.190744
0.170661
0.15058
0.1305
0.110414
0.0903148
0.0702557
0.0503029
0.029974
0.00987458
0.190745
0.170662
0.150582
0.130502
0.110418
0.0903162
0.0702552
0.0503041
0.0300162
0.00988202
0.190745
0.170663
0.150581
0.130503
0.110418
0.0903189
0.0702513
0.0503083
0.0300445
0.0098849
0.190744
0.170661
0.150579
0.130499
0.110414
0.090314
0.0702464
0.0502652
0.030022
0.00986911
0.190742
0.170659
0.150577
0.130495
0.110413
0.0903269
0.0702449
0.0501758
0.0300776
0.00998558
)
;

boundaryField
{
    inlet
    {
        type            zeroGradient;
    }
    outlet
    {
        type            fixedValue;
        value           uniform 0;
    }
    upperWall
    {
        type            zeroGradient;
    }
    lowerWall
    {
        type            zeroGradient;
    }
    frontAndBack
    {
        type            empty;
    }
}


// ************************************************************************* //
