/*--------------------------------*- C++ -*----------------------------------*\
| =========                 |                                                 |
| \\      /  F ield         | OpenFOAM: The Open Source CFD Toolbox           |
|  \\    /   O peration     | Version:  2406                                  |
|   \\  /    A nd           | Website:  www.openfoam.com                      |
|    \\/     M anipulation  |                                                 |
\*---------------------------------------------------------------------------*/
FoamFile
{
    version     2.0;
    format      ascii;
    arch        "LSB;label=32;scalar=64";
    class       surfaceScalarField;
    location    "22";
    object      phi;
}
// * * * * * * * * * * * * * * * * * * * * * * * * * * * * * * * * * * * * * //

dimensions      [0 3 -1 0 0 0 0];

oriented        oriented;

internalField   nonuniform List<scalar> 
3880
(
0.0517874
0.0149135
0.0373674
0.0144205
0.0279712
0.00939567
0.0220256
0.00594518
0.0182045
0.00382003
0.0157136
0.00248961
0.0140525
0.00166019
0.0129151
0.00113673
0.0121184
0.000796245
0.000567906
0.0115502
0.0693947
0.0122201
0.0648092
0.0190065
0.0575561
0.0166499
0.0507135
0.0127872
0.0451309
0.00940097
0.0408186
0.00680011
0.0375634
0.00491428
0.0351263
0.00357313
0.0333041
0.00261791
0.00193154
0.03194
0.0702013
0.00871923
0.071984
0.0172253
0.0702937
0.0183405
0.0667695
0.0163119
0.0627706
0.0134003
0.059005
0.010566
0.055759
0.00816053
0.0530912
0.00624131
0.0509572
0.00475208
0.0036107
0.0492781
0.0693826
0.0060367
0.0728477
0.0137589
0.0744608
0.0167281
0.0741775
0.016597
0.0726826
0.0148965
0.0706296
0.01262
0.0684679
0.010323
0.0664484
0.00826148
0.0646824
0.00651856
0.00509378
0.0631996
0.0686135
0.00412225
0.0720031
0.0103688
0.0749249
0.0138073
0.0766816
0.0148416
0.07731
0.0142692
0.0771166
0.012814
0.0764374
0.0110026
0.0755371
0.00916222
0.0745899
0.00746604
0.00598799
0.0736958
0.0680357
0.00278612
0.070908
0.00749609
0.0740899
0.0106261
0.0768296
0.0121029
0.078842
0.0122571
0.0801336
0.0115225
0.0808451
0.0102912
0.0811476
0.00885974
0.0811912
0.00742254
0.00609101
0.0810882
0.0676536
0.00183207
0.0699992
0.00515016
0.073011
0.00761496
0.0760813
0.00903316
0.0788378
0.0095007
0.0811176
0.0092424
0.0829001
0.00850866
0.08424
0.0075198
0.0852204
0.00644225
0.00538685
0.0859245
0.0674191
0.00111246
0.0693561
0.00321272
0.0720917
0.0048798
0.0751792
0.00594602
0.0782639
0.00641588
0.0811149
0.00639106
0.0836126
0.00601081
0.0857191
0.00541336
0.0874474
0.00471399
0.00399702
0.0888372
0.0672859
0.000526063
0.0689565
0.00154156
0.07146
0.00237669
0.0744658
0.00294046
0.0776615
0.00322008
0.0807997
0.00325248
0.0837123
0.00309808
0.0863038
0.002822
0.0885358
0.00248197
0.00212261
0.0904102
0.0672255
-6.77925e-09
0.0687665
-1.3984e-08
0.0711436
-3.05409e-09
0.0740844
-9.24434e-09
0.0773043
-1.53925e-08
0.0805564
-2.03238e-08
0.0836545
-7.50327e-09
0.0864765
2.71322e-08
0.0889584
1.01685e-07
2.27905e-07
0.0910807
0.0672255
-0.000526072
0.0687666
-0.00154164
0.0711436
-0.00237675
0.0740844
-0.00294051
0.0773043
-0.00322015
0.0805565
-0.00325256
0.0836545
-0.00309813
0.0864766
-0.00282197
0.0889585
-0.00248178
-0.00212217
0.0910809
0.0672859
-0.00111252
0.0689566
-0.00321273
0.0714601
-0.00487985
0.0744659
-0.00594607
0.0776616
-0.00641596
0.0807999
-0.00639116
0.0837125
-0.00601091
0.086304
-0.00541339
0.0885361
-0.00471386
-0.00399665
0.0904105
0.0674192
-0.00183201
0.0693562
-0.0051501
0.0720918
-0.00761475
0.0751794
-0.0090331
0.0782641
-0.00950082
0.0811151
-0.00924261
0.0836129
-0.00850887
0.0857194
-0.00751994
0.0874478
-0.00644225
-0.00538661
0.0888377
0.0676537
-0.00278604
0.0699995
-0.00749595
0.073011
-0.0106263
0.0760814
-0.012103
0.0788379
-0.0122572
0.0811179
-0.0115226
0.0829004
-0.0102914
0.0842405
-0.00885989
0.085221
-0.00742259
-0.00609087
0.0859252
0.068036
-0.00412264
0.070908
-0.0103698
0.0740901
-0.0138076
0.0768297
-0.0148415
0.0788422
-0.0142688
0.0801339
-0.0128135
0.0808455
-0.0110022
0.0811483
-0.00916188
0.081192
-0.00746576
-0.00598769
0.0810891
0.0686136
-0.00603712
0.072004
-0.0137594
0.0749256
-0.0167282
0.0766822
-0.0165962
0.0773105
-0.0148953
0.0771171
-0.0126186
0.0764379
-0.0103218
0.0755377
-0.0082606
0.0745906
-0.00651793
-0.00509328
0.0736967
0.0693823
-0.00871893
0.0728491
-0.0172239
0.0744624
-0.0183395
0.0741787
-0.0163106
0.0726834
-0.013399
0.07063
-0.010565
0.0684682
-0.00815974
0.0664487
-0.0062407
0.0646829
-0.00475161
-0.00361034
0.0632003
0.0702018
-0.0122189
0.0719848
-0.0190056
0.0702953
-0.0166483
0.0667704
-0.0127865
0.0627709
-0.00940116
0.059005
-0.00680056
0.0557589
-0.00491467
0.0530912
-0.00357338
0.0509574
-0.00261807
-0.00193167
0.0492785
0.0693946
-0.0149131
0.0648102
-0.0144199
0.0575563
-0.00939582
0.0507133
-0.00594561
0.0451306
-0.00382065
0.0408185
-0.00249034
0.0375632
-0.00166084
0.0351262
-0.00113722
0.0333042
-0.000796617
-0.000568203
0.0319402
0.0517871
0.0373671
0.027971
0.0220251
0.0182041
0.0157135
0.0140525
0.0129152
0.0121185
0.0115502
0.0111392
0.000410715
0.0108389
0.000299976
0.0106184
0.000220406
0.0104559
0.000162358
0.0103363
0.000119579
0.0102484
8.78707e-05
0.0101841
6.43104e-05
0.0101373
4.68006e-05
0.0101035
3.38038e-05
0.0100794
2.41826e-05
0.0100624
1.7088e-05
0.0100506
1.18861e-05
0.0100426
8.09982e-06
0.0100373
5.37032e-06
0.010034
3.42616e-06
0.010032
2.06215e-06
0.010031
1.12352e-06
0.0100306
4.93211e-07
0.0100306
8.43481e-08
0.0100308
-1.68755e-07
0.0100312
-3.13271e-07
0.0100316
-3.85124e-07
0.0100321
-4.0853e-07
0.0100326
-4.02529e-07
0.010033
-3.78378e-07
0.0100334
-3.45821e-07
0.0100337
-3.09049e-07
0.010034
-2.72925e-07
0.0100343
-2.37994e-07
0.0100345
-2.0676e-07
0.0100348
-1.78066e-07
0.0100349
-1.53439e-07
0.0100351
-1.31065e-07
0.0100352
-1.12192e-07
-9.48598e-08
0.0100354
0.0309172
0.00143314
0.0301494
0.00106745
0.0295729
0.000796657
0.0291405
0.000594674
0.0288168
0.000443282
0.0285752
0.000329511
0.0283957
0.00024395
0.0282629
0.000179653
0.0281654
0.000131432
0.0280944
9.53779e-05
0.0280431
6.8532e-05
0.0280066
4.8647e-05
0.0279808
3.40139e-05
0.0279631
2.33309e-05
0.0279511
1.56065e-05
0.0279433
1.00866e-05
0.0279384
6.19813e-06
0.0279356
3.50771e-06
0.0279341
1.68764e-06
0.0279336
4.93446e-07
0.0279337
-2.58371e-07
0.0279342
-7.01785e-07
0.0279349
-9.3636e-07
0.0279356
-1.03222e-06
0.0279364
-1.04096e-06
0.0279371
-9.96667e-07
0.0279379
-9.24321e-07
0.0279385
-8.38518e-07
0.0279391
-7.50179e-07
0.0279396
-6.64003e-07
0.0279401
-5.84097e-07
0.0279406
-5.10671e-07
0.0279409
-4.44973e-07
0.0279413
-3.85571e-07
-3.32834e-07
0.0279416
0.0479709
0.00274033
0.0469608
0.00207752
0.0461849
0.00157263
0.0455918
0.00118781
0.0451408
0.000894458
0.0447994
0.000670998
0.0445424
0.000501045
0.04435
0.000372092
0.044207
0.00027455
0.0441015
0.000201048
0.0440242
0.00014591
0.0439683
0.000104768
0.0439281
7.42622e-05
0.0438998
5.18104e-05
0.0438801
3.543e-05
0.0438668
2.36024e-05
0.0438579
1.51674e-05
0.0438523
9.24092e-06
0.043849
5.15314e-06
0.0438472
2.39824e-06
0.0438465
5.97928e-07
0.0438464
-5.29777e-07
0.0438468
-1.19166e-06
0.0438474
-1.53907e-06
0.0438481
-1.67965e-06
0.0438489
-1.69024e-06
0.0438497
-1.6229e-06
0.0438504
-1.51357e-06
0.0438512
-1.38457e-06
0.0438518
-1.25068e-06
0.0438524
-1.11952e-06
0.043853
-9.95939e-07
0.0438535
-8.81108e-07
0.0438539
-7.75981e-07
-6.79488e-07
0.0438543
0.0619876
0.00395243
0.0610156
0.00304968
0.0602467
0.00234158
0.0596452
0.00178946
0.0591787
0.00136099
0.0588199
0.0010299
0.0585459
0.000775129
0.0583381
0.000579929
0.0581817
0.000431037
0.0580648
0.000318009
0.0579782
0.000232648
0.0579145
0.000168548
0.0578681
0.000120718
0.0578347
8.52861e-05
0.057811
5.92537e-05
0.0577944
4.03087e-05
0.057783
2.66733e-05
0.0577753
1.69865e-05
0.0577704
1.02111e-05
0.0577673
5.56117e-06
0.0577656
2.44476e-06
0.0577647
4.20027e-07
0.0577644
-8.40259e-07
0.0577645
-1.5753e-06
0.0577649
-1.95813e-06
0.0577654
-2.11138e-06
0.057766
-2.12088e-06
0.0577666
-2.04475e-06
0.0577672
-1.92178e-06
0.0577678
-1.77636e-06
0.0577684
-1.6237e-06
0.0577689
-1.4721e-06
0.0577694
-1.32623e-06
0.0577699
-1.18776e-06
-1.05748e-06
0.0577703
0.0729035
0.00474483
0.0722295
0.00372375
0.0716722
0.00289896
0.0712208
0.00224085
0.0708611
0.00172075
0.0705781
0.00131298
0.0703577
0.000995494
0.0701878
0.000749868
0.0700579
0.000560981
0.0699594
0.000416583
0.0698852
0.000306851
0.0698298
0.000223978
0.0697888
0.000161802
0.0697587
0.00011549
0.0697367
8.12675e-05
0.0697209
5.62041e-05
0.0697096
3.80332e-05
0.0697016
2.50111e-05
0.0696961
1.58027e-05
0.0696924
9.39255e-06
0.0696899
5.0131e-06
0.0696883
2.08923e-06
0.0696873
1.93731e-07
0.0696868
-9.87048e-07
0.0696866
-1.68061e-06
0.0696866
-2.04932e-06
0.0696868
-2.20716e-06
0.069687
-2.23233e-06
0.0696873
-2.17727e-06
0.0696877
-2.07606e-06
0.0696881
-1.95013e-06
0.0696885
-1.81237e-06
0.0696889
-1.67019e-06
0.0696893
-1.52767e-06
-1.38694e-06
0.0696897
0.0809149
0.00491813
0.0807188
0.00391978
0.0805273
0.00309055
0.0803539
0.00241423
0.0802043
0.00187037
0.0800793
0.00143801
0.0799772
0.00109759
0.0798952
0.00083181
0.0798303
0.000625873
0.0797795
0.000467431
0.07974
0.000346359
0.0797096
0.000254468
0.0796862
0.000185207
0.0796683
0.000133384
0.0796547
9.49102e-05
0.0796444
6.65885e-05
0.0796365
4.59335e-05
0.0796306
3.10241e-05
0.079626
2.03845e-05
0.0796226
1.28881e-05
0.07962
7.68185e-06
0.079618
4.12475e-06
0.0796165
1.74022e-06
0.0796154
1.77555e-07
0.0796146
-8.17661e-07
0.0796141
-1.42752e-06
0.0796137
-1.77989e-06
0.0796135
-1.96297e-06
0.0796134
-2.03615e-06
0.0796134
-2.03854e-06
0.0796135
-1.99518e-06
0.0796137
-1.9218e-06
0.0796139
-1.8281e-06
0.0796142
-1.72011e-06
-1.60183e-06
0.0796144
0.0864243
0.00441827
0.0867765
0.00356753
0.0870236
0.00284338
0.0871965
0.00224125
0.0873173
0.0017496
0.0874013
0.00135396
0.0874595
0.00103938
0.0874994
0.000791831
0.0875265
0.000598773
0.0875445
0.000449441
0.087556
0.00033481
0.087563
0.000247462
0.0875668
0.000181388
0.0875685
0.000131776
0.0875686
9.48094e-05
0.0875677
6.74868e-05
0.0875662
4.74623e-05
0.0875643
3.29167e-05
0.0875623
2.24483e-05
0.0875602
1.4986e-05
0.0875582
9.71718e-06
0.0875564
6.03191e-06
0.0875547
3.47656e-06
0.0875532
1.71849e-06
0.0875519
5.16563e-07
0.0875508
-3.00778e-07
0.08755
-8.53881e-07
0.0875493
-1.22518e-06
0.0875488
-1.47032e-06
0.0875484
-1.62589e-06
0.0875482
-1.71577e-06
0.0875481
-1.75536e-06
0.0875481
-1.75493e-06
0.0875481
-1.72159e-06
-1.66089e-06
0.0875482
0.0899382
0.00331715
0.0908006
0.00270501
0.0914701
0.00217384
0.0919858
0.00172547
0.0923804
0.00135497
0.0926803
0.00105399
0.0929067
0.000812875
0.0930765
0.000621996
0.0932028
0.000472424
0.0932959
0.000356284
0.0933638
0.000266856
0.0934127
0.000198537
0.0934474
0.000146739
0.0934714
0.00010776
0.0934875
7.86441e-05
0.093498
5.70552e-05
0.0935043
4.11619e-05
0.0935076
2.954e-05
0.093509
2.10921e-05
0.093509
1.49789e-05
0.0935082
1.05664e-05
0.0935069
7.37958e-06
0.0935054
5.06826e-06
0.0935037
3.37721e-06
0.0935022
2.12415e-06
0.0935007
1.18075e-06
0.0934995
4.59019e-07
0.0934984
-1.006e-07
0.0934975
-5.37199e-07
0.0934968
-8.76491e-07
0.0934963
-1.13512e-06
0.0934959
-1.32456e-06
0.0934957
-1.45308e-06
0.0934955
-1.52769e-06
-1.55468e-06
0.0934955
0.0919527
0.00177453
0.0932014
0.00145612
0.0941987
0.00117644
0.094986
0.000938121
0.0956011
0.000739747
0.0960773
0.00057769
0.0964428
0.000447323
0.0967209
0.000343803
0.0969307
0.000262521
0.0970876
0.000199334
0.0972038
0.000150657
0.0972888
0.00011347
0.0973502
8.52834e-05
0.0973939
6.40717e-05
0.0974243
4.82121e-05
0.0974449
3.64173e-05
0.0974584
2.76764e-05
0.0974667
2.12046e-05
0.0974714
1.6399e-05
0.0974736
1.28025e-05
0.0974741
1.00738e-05
0.0974735
7.96225e-06
0.0974724
6.28783e-06
0.0974708
4.92447e-06
0.0974692
3.78624e-06
0.0974676
2.81703e-06
0.0974662
1.98131e-06
0.0974648
1.25798e-06
0.0974637
6.34689e-07
0.0974628
1.04501e-07
0.097462
-3.37259e-07
0.0974615
-6.94386e-07
0.097461
-9.71296e-07
0.0974607
-1.1732e-06
-1.30663e-06
0.0974605
0.0928547
4.16821e-07
0.09431
6.76739e-07
0.0954853
1.01632e-06
0.0964219
1.44298e-06
0.0971596
1.96258e-06
0.0977346
2.5746e-06
0.0981785
3.27305e-06
0.0985182
4.04385e-06
0.0987758
4.86698e-06
0.0989693
5.71624e-06
0.0991134
6.56118e-06
0.0992194
7.36826e-06
0.0992966
8.103e-06
0.0993519
8.732e-06
0.0993908
9.22542e-06
0.0994177
9.55896e-06
0.0994356
9.71569e-06
0.0994471
9.68724e-06
0.0994541
9.47424e-06
0.0994578
9.08611e-06
0.0994593
8.54013e-06
0.0994595
7.86017e-06
0.0994587
7.07476e-06
0.0994575
6.21533e-06
0.099456
5.31413e-06
0.0994544
4.40254e-06
0.0994529
3.50934e-06
0.0994516
2.65971e-06
0.0994504
1.87412e-06
0.0994494
1.16815e-06
0.0994485
5.52113e-07
0.0994479
3.15483e-08
0.0994473
-3.92631e-07
0.0994469
-7.23163e-07
-9.66064e-07
0.0994466
0.0928549
-0.00177372
0.0943102
-0.0014548
0.0954856
-0.00117447
0.0964222
-0.000935313
0.09716
-0.000735925
0.0977352
-0.000572672
0.0981793
-0.000440942
0.0985192
-0.000335917
0.098777
-0.000253029
0.0989708
-0.000188183
0.0991152
-0.000137855
0.0992216
-9.90921e-05
0.0992992
-6.94696e-05
0.0993549
-4.70294e-05
0.0993943
-3.02065e-05
0.0994216
-1.77613e-05
0.0994401
-8.71557e-06
0.0994521
-2.30121e-06
0.0994595
2.08655e-06
0.0994636
4.9227e-06
0.0994656
6.58314e-06
0.0994662
7.36447e-06
0.0994658
7.50323e-06
0.0994648
7.18647e-06
0.0994636
6.56364e-06
0.0994623
5.75173e-06
0.099461
4.84301e-06
0.0994598
3.90722e-06
0.0994588
2.99724e-06
0.0994578
2.14981e-06
0.099457
1.39028e-06
0.0994564
7.32564e-07
0.0994559
1.83436e-07
0.0994554
-2.58007e-07
-5.96352e-07
0.0994551
0.0919531
-0.00331642
0.093202
-0.00270381
0.0941995
-0.00217203
0.094987
-0.00172288
0.0956024
-0.00135145
0.096079
-0.00104936
0.096445
-0.000806982
0.0967237
-0.000614703
0.0969343
-0.000463635
0.097092
-0.000345951
0.0972091
-0.000254986
0.0972952
-0.000185199
0.0973578
-0.000132066
0.0974027
-9.19439e-05
0.0974344
-6.19339e-05
0.0974564
-3.9742e-05
0.0974713
-2.35688e-05
0.097481
-1.20042e-05
0.0974871
-3.95012e-06
0.0974906
1.45083e-06
0.0974924
4.86386e-06
0.097493
6.80847e-06
0.0974928
7.68635e-06
0.0974923
7.81107e-06
0.0974915
7.42298e-06
0.0974905
6.70842e-06
0.0974896
5.80707e-06
0.0974888
4.82493e-06
0.097488
3.83754e-06
0.0974873
2.89941e-06
0.0974867
2.04505e-06
0.0974862
1.29634e-06
0.0974857
6.62353e-07
0.0974854
1.45355e-07
-2.60108e-07
0.0974851
0.0899389
-0.00441771
0.0908015
-0.00356654
0.0914713
-0.00284184
0.0919874
-0.00223904
0.0923825
-0.00174656
0.092683
-0.00134994
0.0929102
-0.00103425
0.0930809
-0.000785459
0.0932083
-0.000591079
0.0933028
-0.000440382
0.0933722
-0.000324391
0.0934227
-0.000235746
0.0934592
-0.000168491
0.0934851
-0.00011787
0.0935033
-8.01146e-05
0.0935159
-5.22626e-05
0.0935244
-3.19947e-05
0.0935299
-1.75053e-05
0.0935334
-7.39092e-06
0.0935355
-5.64645e-07
0.0935366
3.81468e-06
0.0935371
6.39604e-06
0.0935372
7.67971e-06
0.093537
8.04955e-06
0.0935367
7.79899e-06
0.0935363
7.15042e-06
0.0935359
6.27054e-06
0.0935355
5.2823e-06
0.0935351
4.27393e-06
0.0935347
3.30683e-06
0.0935344
2.42086e-06
0.0935341
1.63995e-06
0.0935339
9.75093e-07
0.0935336
4.28613e-07
-4.33674e-09
0.0935334
0.0864252
-0.00491771
0.0867776
-0.00391901
0.0870251
-0.00308933
0.0871986
-0.00241245
0.0873199
-0.00186791
0.0874047
-0.00143475
0.0874639
-0.0010934
0.087505
-0.000826598
0.0875335
-0.00061956
0.0875531
-0.00045998
0.0875665
-0.000337774
0.0875756
-0.0002448
0.0875817
-0.000174555
0.0875858
-0.00012189
0.0875885
-8.27588e-05
0.0875903
-5.39978e-05
0.0875915
-3.31426e-05
0.0875924
-1.82846e-05
0.087593
-7.94438e-06
0.0875935
-9.84106e-07
0.0875939
3.4758e-06
0.0875943
6.10704e-06
0.0875946
7.42786e-06
0.0875949
7.82968e-06
0.0875952
7.61321e-06
0.0875954
7.00077e-06
0.0875956
6.1613e-06
0.0875957
5.21449e-06
0.0875958
4.24906e-06
0.0875958
3.3224e-06
0.0875958
2.47483e-06
0.0875958
1.72669e-06
0.0875957
1.09014e-06
0.0875956
5.64754e-07
1.47654e-07
0.0875955
0.080916
-0.0047444
0.0807202
-0.00372312
0.080529
-0.00289802
0.0803562
-0.00223951
0.0802073
-0.00171891
0.0800831
-0.00131054
0.0799821
-0.000992346
0.0799014
-0.000745934
0.0798381
-0.0005562
0.0797891
-0.000410922
0.0797517
-0.000300311
0.0797235
-0.000216595
0.0797027
-0.000153653
0.0796875
-0.000106685
0.0796768
-7.19503e-05
0.0796694
-4.65437e-05
0.0796646
-2.82175e-05
0.0796616
-1.52348e-05
0.0796601
-6.26093e-06
0.0796594
-2.68029e-07
0.0796595
3.52885e-06
0.0796599
5.73254e-06
0.0796607
6.79945e-06
0.0796615
7.07874e-06
0.0796624
6.83058e-06
0.0796632
6.25238e-06
0.0796639
5.48661e-06
0.0796646
4.6395e-06
0.0796651
3.78273e-06
0.0796655
2.96795e-06
0.0796658
2.22475e-06
0.079666
1.5729e-06
0.0796661
1.01793e-06
0.0796662
5.62129e-07
1.98516e-07
0.0796662
0.0729046
-0.00395195
0.0722308
-0.00304913
0.0716739
-0.00234087
0.0712231
-0.00178851
0.070864
-0.00135972
0.0705818
-0.00102823
0.0703626
-0.000772988
0.070194
-0.000577248
0.0700656
-0.000427769
0.0699689
-0.000314125
0.0698968
-0.000228146
0.0698437
-0.00016345
0.0698052
-0.000115077
0.0697778
-7.9178e-05
0.0697588
-5.27805e-05
0.0697459
-3.35884e-05
0.0697377
-1.98403e-05
0.0697327
-1.01778e-05
0.0697301
-3.5666e-06
0.0697292
7.90728e-07
0.0697293
3.49566e-06
0.0697301
5.0127e-06
0.0697313
5.68726e-06
0.0697327
5.78635e-06
0.0697341
5.50417e-06
0.0697355
4.99019e-06
0.0697367
4.34908e-06
0.0697377
3.65992e-06
0.0697386
2.97449e-06
0.0697393
2.32982e-06
0.0697398
1.74697e-06
0.0697402
1.23836e-06
0.0697405
8.08167e-07
0.0697406
4.55228e-07
1.7543e-07
0.0697407
0.0619885
-0.00274002
0.0610167
-0.00207719
0.0602482
-0.00157222
0.0596471
-0.00118726
0.0591813
-0.000893728
0.0588232
-0.00067003
0.0585502
-0.000499792
0.0583436
-0.000370513
0.0581885
-0.000272614
0.0580733
-0.000198736
0.0579885
-0.000143217
0.0579269
-0.000101709
0.0578829
-7.08657e-05
0.057852
-4.81252e-05
0.0578309
-3.15143e-05
0.057817
-1.95337e-05
0.0578083
-1.10229e-05
0.0578034
-5.11118e-06
0.0578011
-1.11866e-06
0.0578005
1.45495e-06
0.0578012
3.00679e-06
0.0578025
3.81993e-06
0.0578042
4.12518e-06
0.057806
4.07883e-06
0.0578077
3.81355e-06
0.0578094
3.41166e-06
0.0578109
2.94748e-06
0.0578122
2.4602e-06
0.0578132
1.9892e-06
0.057814
1.54884e-06
0.0578147
1.15776e-06
0.0578152
8.16585e-07
0.0578155
5.32114e-07
0.0578157
2.98063e-07
1.15001e-07
0.0578158
0.0479715
-0.00143325
0.0469616
-0.00106752
0.0461859
-0.000796643
0.0455932
-0.00059455
0.0451426
-0.000443027
0.0448018
-0.000329113
0.0445456
-0.000243395
0.0443542
-0.000178927
0.0442123
-0.000130521
0.044108
-9.42745e-05
0.0440323
-6.72353e-05
0.043978
-4.7163e-05
0.0439397
-3.23606e-05
0.0439134
-2.15302e-05
0.0438958
-1.36933e-05
0.0438846
-8.09478e-06
0.043878
-4.17263e-06
0.0438746
-1.487e-06
0.0438734
2.81322e-07
0.0438737
1.38865e-06
0.0438748
2.01317e-06
0.0438765
2.30441e-06
0.0438784
2.35895e-06
0.0438804
2.26419e-06
0.0438822
2.06959e-06
0.0438839
1.82614e-06
0.0438854
1.55604e-06
0.0438866
1.28875e-06
0.0438876
1.03074e-06
0.0438884
7.9877e-07
0.0438891
5.9042e-07
0.0438895
4.15199e-07
0.0438898
2.6595e-07
0.04389
1.48327e-07
5.30204e-08
0.0438901
0.0309175
-0.000410959
0.0301498
-0.000300164
0.0295735
-0.000220533
0.0291413
-0.00016242
0.0288179
-0.000119575
0.0285767
-8.78031e-05
0.0283976
-6.41782e-05
0.0282654
-4.6604e-05
0.0281686
-3.35395e-05
0.0280984
-2.38522e-05
0.0280481
-1.66906e-05
0.0280126
-1.14289e-05
0.0279881
-7.58673e-06
0.0279717
-4.81443e-06
0.0279611
-2.83524e-06
0.0279547
-1.4531e-06
0.0279513
-5.05664e-07
0.0279499
1.15429e-07
0.0279499
5.06706e-07
0.0279507
7.25614e-07
0.0279521
8.30657e-07
0.0279537
8.49724e-07
0.0279553
8.19602e-07
0.027957
7.51043e-07
0.0279585
6.68536e-07
0.0279598
5.72765e-07
0.0279609
4.81305e-07
0.0279619
3.88819e-07
0.0279627
3.09081e-07
0.0279633
2.33111e-07
0.0279637
1.72735e-07
0.0279641
1.16795e-07
0.0279643
7.63005e-08
0.0279645
3.88433e-08
1.52886e-08
0.0279645
0.0111392
0.010839
0.0106185
0.010456
0.0103365
0.0102487
0.0101845
0.0101379
0.0101044
0.0100806
0.0100639
0.0100526
0.010045
0.0100402
0.0100374
0.010036
0.0100355
0.0100357
0.0100362
0.0100369
0.0100378
0.0100387
0.0100395
0.0100403
0.0100409
0.0100415
0.010042
0.0100424
0.0100427
0.010043
0.0100431
0.0100433
0.0100433
0.0100434
0.0100434
0.0100355
-8.03328e-08
0.0100355
-6.67176e-08
0.0100356
-5.53687e-08
0.0100357
-4.45159e-08
0.0100357
-3.55853e-08
0.0100358
-2.69183e-08
0.0100358
-1.99623e-08
0.0100358
-1.31451e-08
0.0100359
-7.89194e-09
-2.69441e-09
0.0100359
0.0279418
-2.85019e-07
0.0279421
-2.42455e-07
0.0279423
-2.03569e-07
0.0279424
-1.68901e-07
0.0279426
-1.37119e-07
0.0279427
-1.08958e-07
0.0279428
-8.32455e-08
0.0279429
-6.08195e-08
0.027943
-4.05669e-08
-2.33492e-08
0.027943
0.0438547
-5.9153e-07
0.043855
-5.10671e-07
0.0438553
-4.36866e-07
0.0438556
-3.68917e-07
0.0438558
-3.07078e-07
0.043856
-2.50426e-07
0.0438561
-1.99422e-07
0.0438563
-1.53273e-07
0.0438564
-1.12491e-07
-7.62781e-08
0.0438565
0.0577707
-9.35044e-07
0.0577711
-8.2035e-07
0.0577714
-7.12816e-07
0.0577717
-6.12484e-07
0.0577719
-5.19013e-07
0.0577722
-4.32686e-07
0.0577724
-3.53325e-07
0.0577725
-2.8127e-07
0.0577727
-2.16308e-07
-1.58662e-07
0.0577728
0.06969
-1.24919e-06
0.0696904
-1.11516e-06
0.0696907
-9.85529e-07
0.069691
-8.60972e-07
0.0696912
-7.42266e-07
0.0696915
-6.30162e-07
0.0696917
-5.25434e-07
0.0696919
-4.28706e-07
0.069692
-3.40508e-07
-2.6114e-07
0.0696922
0.0796147
-1.47613e-06
0.079615
-1.34545e-06
0.0796153
-1.21204e-06
0.0796155
-1.07811e-06
0.0796158
-9.45779e-07
0.079616
-8.17124e-07
0.0796162
-6.93986e-07
0.0796164
-5.77999e-07
0.0796165
-4.70441e-07
-3.72293e-07
0.0796167
0.0875484
-1.57751e-06
0.0875485
-1.47591e-06
0.0875487
-1.36034e-06
0.0875489
-1.235e-06
0.0875491
-1.10391e-06
0.0875493
-9.70865e-07
0.0875495
-8.3923e-07
0.0875497
-7.11974e-07
0.0875498
-5.91483e-07
-4.79651e-07
0.08755
0.0934955
-1.54045e-06
0.0934955
-1.49136e-06
0.0934956
-1.414e-06
0.0934957
-1.31475e-06
0.0934959
-1.19991e-06
0.093496
-1.0752e-06
0.0934962
-9.45919e-07
0.0934963
-8.16505e-07
0.0934964
-6.90791e-07
-5.71669e-07
0.0934966
0.0974604
-1.37901e-06
0.0974604
-1.39866e-06
0.0974604
-1.37422e-06
0.0974604
-1.31452e-06
0.0974605
-1.22795e-06
0.0974605
-1.12249e-06
0.0974606
-1.00519e-06
0.0974607
-8.82302e-07
0.0974608
-7.58916e-07
-6.39251e-07
0.0974609
0.0994464
-1.12945e-06
0.0994463
-1.22322e-06
0.0994462
-1.25783e-06
0.0994462
-1.24425e-06
0.0994462
-1.19285e-06
0.0994462
-1.1136e-06
0.0994462
-1.01521e-06
0.0994463
-9.0554e-07
0.0994464
-7.90887e-07
-6.76636e-07
0.0994464
0.0994549
-8.40858e-07
0.0994547
-1.00178e-06
0.0994546
-1.09181e-06
0.0994545
-1.12272e-06
0.0994544
-1.10727e-06
0.0994544
-1.0561e-06
0.0994544
-9.80057e-07
0.0994544
-8.87325e-07
0.0994544
-7.86035e-07
-6.81542e-07
0.0994545
0.0974848
-5.62147e-07
0.0974846
-7.7307e-07
0.0974845
-9.05066e-07
0.0974844
-9.72211e-07
0.0974843
-9.86777e-07
0.0974842
-9.61598e-07
0.0974842
-9.0686e-07
0.0974842
-8.32725e-07
0.0974842
-7.46461e-07
-6.55216e-07
0.0974842
0.0935332
-3.32411e-07
0.093533
-5.67676e-07
0.0935329
-7.22854e-07
0.0935328
-8.11791e-07
0.0935327
-8.47122e-07
0.0935326
-8.41399e-07
0.0935325
-8.05029e-07
0.0935325
-7.47879e-07
0.0935324
-6.77368e-07
-6.00395e-07
0.0935324
0.0875954
-1.7179e-07
0.0875953
-4.03067e-07
0.0875951
-5.60362e-07
0.087595
-6.54621e-07
0.0875949
-6.99725e-07
0.0875948
-7.05277e-07
0.0875947
-6.8294e-07
0.0875946
-6.3977e-07
0.0875946
-5.84588e-07
-5.21714e-07
0.0875945
0.0796661
-7.89609e-08
0.079666
-2.82555e-07
0.0796659
-4.21017e-07
0.0796658
-5.07541e-07
0.0796657
-5.50392e-07
0.0796656
-5.61414e-07
0.0796655
-5.46878e-07
0.0796654
-5.16341e-07
0.0796653
-4.73643e-07
-4.25951e-07
0.0796653
0.0697407
-3.89548e-08
0.0697407
-1.95012e-07
0.0697406
-3.0278e-07
0.0697405
-3.69241e-07
0.0697404
-4.0434e-07
0.0697403
-4.13418e-07
0.0697401
-4.05179e-07
0.06974
-3.82783e-07
0.06974
-3.53351e-07
-3.17914e-07
0.0697399
0.0578158
-2.60403e-08
0.0578158
-1.27218e-07
0.0578157
-1.97727e-07
0.0578156
-2.4038e-07
0.0578155
-2.633e-07
0.0578154
-2.68876e-07
0.0578153
-2.63638e-07
0.0578152
-2.49114e-07
0.0578151
-2.30196e-07
-2.07511e-07
0.057815
0.0438902
-1.60389e-08
0.0438901
-6.87751e-08
0.0438901
-1.01697e-07
0.04389
-1.24492e-07
0.0438899
-1.33409e-07
0.0438898
-1.37495e-07
0.0438897
-1.32437e-07
0.0438896
-1.26536e-07
0.0438896
-1.14855e-07
-1.05008e-07
0.0438895
0.0279645
-7.42676e-09
0.0279645
-1.82084e-08
0.0279645
-3.04122e-08
0.0279644
-3.25456e-08
0.0279644
-3.80451e-08
0.0279643
-3.49787e-08
0.0279642
-3.67584e-08
0.0279641
-3.10526e-08
0.0279641
-3.12071e-08
-2.45651e-08
0.027964
0.0100434
0.0100434
0.0100433
0.0100433
0.0100433
0.0100433
0.0100432
0.0100432
0.0100432
0.0100431
0.0100359
1.07234e-09
0.0100359
4.86321e-09
0.0100359
7.36142e-09
0.0100359
9.9738e-09
0.0100359
1.14393e-08
0.0100359
1.3116e-08
0.0100359
1.37872e-08
0.0100359
1.47639e-08
0.0100359
1.48624e-08
0.0100359
1.53497e-08
0.0100359
1.5064e-08
0.0100359
1.52288e-08
0.0100359
1.47065e-08
0.0100359
1.46824e-08
0.0100359
1.40333e-08
0.0100359
1.39168e-08
0.0100359
1.32361e-08
0.0100359
1.31097e-08
0.0100359
1.24827e-08
0.0100359
1.24155e-08
0.0100359
1.19215e-08
0.0100359
1.20421e-08
0.0100359
1.17562e-08
0.0100359
1.20802e-08
0.0100359
1.2201e-08
0.0100359
1.28955e-08
0.0100359
1.35723e-08
0.0100359
1.50709e-08
0.0100359
1.68867e-08
0.0100359
1.99622e-08
0.010036
2.40191e-08
0.010036
3.0075e-08
0.010036
3.77886e-08
0.0100361
4.77221e-08
5.99377e-08
0.0100361
0.0279431
-8.04436e-09
0.0279431
4.50275e-09
0.0279431
1.54499e-08
0.0279432
2.39751e-08
0.0279432
3.12663e-08
0.0279432
3.65112e-08
0.0279432
4.09078e-08
0.0279432
4.36351e-08
0.0279432
4.58794e-08
0.0279432
4.67963e-08
0.0279432
4.75464e-08
0.0279432
4.7257e-08
0.0279432
4.70612e-08
0.0279432
4.60593e-08
0.0279432
4.53632e-08
0.0279432
4.4051e-08
0.0279432
4.32265e-08
0.0279432
4.19453e-08
0.0279432
4.13236e-08
0.0279432
4.03915e-08
0.0279432
4.02877e-08
0.0279432
4.00301e-08
0.0279432
4.08159e-08
0.0279432
4.17087e-08
0.0279432
4.40958e-08
0.0279432
4.71631e-08
0.0279432
5.26608e-08
0.0279433
6.0048e-08
0.0279433
7.13501e-08
0.0279434
8.6208e-08
0.0279434
1.06545e-07
0.0279435
1.3176e-07
0.0279436
1.6305e-07
0.0279437
1.99356e-07
2.41649e-07
0.0279437
0.0438565
-4.50892e-08
0.0438566
-1.80512e-08
0.0438566
4.4728e-09
0.0438567
2.34341e-08
0.0438567
3.85439e-08
0.0438567
5.07978e-08
0.0438567
5.9938e-08
0.0438567
6.69587e-08
0.0438567
7.15887e-08
0.0438567
7.47847e-08
0.0438567
7.6232e-08
0.0438567
7.68309e-08
0.0438567
7.62134e-08
0.0438567
7.5224e-08
0.0438567
7.3442e-08
0.0438567
7.16672e-08
0.0438567
6.94402e-08
0.0438567
6.75322e-08
0.0438567
6.54593e-08
0.0438567
6.39784e-08
0.0438567
6.25963e-08
0.0438567
6.2091e-08
0.0438567
6.20191e-08
0.0438568
6.32599e-08
0.0438568
6.55752e-08
0.0438568
7.01119e-08
0.0438568
7.70611e-08
0.0438569
8.80159e-08
0.0438569
1.03614e-07
0.043857
1.25816e-07
0.0438571
1.55421e-07
0.0438572
1.94142e-07
0.0438573
2.42317e-07
0.0438575
3.01326e-07
3.72015e-07
0.0438576
0.0577729
-1.07949e-07
0.057773
-6.4191e-08
0.057773
-2.6806e-08
0.0577731
4.3694e-09
0.0577731
3.00699e-08
0.0577731
5.05759e-08
0.0577732
6.66936e-08
0.0577732
7.87362e-08
0.0577732
8.75034e-08
0.0577732
9.32715e-08
0.0577732
9.67781e-08
0.0577732
9.82232e-08
0.0577732
9.82596e-08
0.0577732
9.69962e-08
0.0577732
9.50015e-08
0.0577732
9.23047e-08
0.0577732
8.94065e-08
0.0577732
8.62769e-08
0.0577732
8.33699e-08
0.0577732
8.06213e-08
0.0577733
7.84681e-08
0.0577733
7.68496e-08
0.0577733
7.62589e-08
0.0577733
7.67525e-08
0.0577733
7.90192e-08
0.0577734
8.34474e-08
0.0577734
9.11784e-08
0.0577735
1.03146e-07
0.0577736
1.21112e-07
0.0577736
1.46576e-07
0.0577738
1.8171e-07
0.0577739
2.28244e-07
0.057774
2.8838e-07
0.0577742
3.6412e-07
4.58619e-07
0.0577744
0.0696923
-1.90745e-07
0.0696924
-1.29223e-07
0.0696925
-7.63332e-08
0.0696925
-3.16266e-08
0.0696926
5.42841e-09
0.0696926
3.55039e-08
0.0696927
5.92867e-08
0.0696927
7.75369e-08
0.0696927
9.09695e-08
0.0696927
1.00321e-07
0.0696927
1.06243e-07
0.0696928
1.0938e-07
0.0696928
1.10274e-07
0.0696928
1.0945e-07
0.0696928
1.07328e-07
0.0696928
1.04322e-07
0.0696928
1.00747e-07
0.0696928
9.69288e-08
0.0696928
9.31067e-08
0.0696929
8.95481e-08
0.0696929
8.64562e-08
0.0696929
8.40908e-08
0.0696929
8.26911e-08
0.069693
8.26225e-08
0.069693
8.43147e-08
0.069693
8.84537e-08
0.0696931
9.59259e-08
0.0696932
1.08022e-07
0.0696932
1.26315e-07
0.0696933
1.52811e-07
0.0696935
1.89775e-07
0.0696936
2.39799e-07
0.0696938
3.05655e-07
0.069694
3.9087e-07
4.99968e-07
0.0696942
0.0796168
-2.84139e-07
0.0796169
-2.06267e-07
0.079617
-1.38613e-07
0.0796171
-8.08882e-08
0.0796171
-3.25467e-08
0.0796172
7.07986e-09
0.0796172
3.88131e-08
0.0796173
6.34976e-08
0.0796173
8.20423e-08
0.0796174
9.53032e-08
0.0796174
1.04141e-07
0.0796174
1.09318e-07
0.0796174
1.11571e-07
0.0796174
1.1152e-07
0.0796175
1.09753e-07
0.0796175
1.06745e-07
0.0796175
1.02949e-07
0.0796175
9.87177e-08
0.0796176
9.43994e-08
0.0796176
9.02629e-08
0.0796176
8.65993e-08
0.0796176
8.36444e-08
0.0796177
8.17044e-08
0.0796177
8.10936e-08
0.0796178
8.22853e-08
0.0796178
8.58725e-08
0.0796179
9.2769e-08
0.0796179
1.04123e-07
0.079618
1.21552e-07
0.0796181
1.47003e-07
0.0796183
1.82895e-07
0.0796185
2.3195e-07
0.0796186
2.97498e-07
0.0796189
3.83416e-07
4.95005e-07
0.0796191
0.0875501
-3.77766e-07
0.0875502
-2.86662e-07
0.0875503
-2.06647e-07
0.0875504
-1.37693e-07
0.0875505
-7.93845e-08
0.0875505
-3.11174e-08
0.0875506
7.95482e-09
0.0875506
3.87293e-08
0.0875507
6.22236e-08
0.0875507
7.94017e-08
0.0875507
9.12656e-08
0.0875508
9.86992e-08
0.0875508
1.02578e-07
0.0875508
1.03633e-07
0.0875509
1.0257e-07
0.0875509
9.99521e-08
0.0875509
9.63219e-08
0.087551
9.20906e-08
0.087551
8.76705e-08
0.087551
8.33639e-08
0.0875511
7.94966e-08
0.0875511
7.63154e-08
0.0875511
7.41311e-08
0.0875512
7.32361e-08
0.0875512
7.4062e-08
0.0875513
7.71364e-08
0.0875513
8.3225e-08
0.0875514
9.33593e-08
0.0875515
1.0893e-07
0.0875516
1.31706e-07
0.0875518
1.63826e-07
0.087552
2.07885e-07
0.0875522
2.66873e-07
0.0875525
3.44784e-07
4.46466e-07
0.0875527
0.0934967
-4.61419e-07
0.0934968
-3.61452e-07
0.0934969
-2.72695e-07
0.093497
-1.95373e-07
0.093497
-1.29422e-07
0.0934971
-7.42681e-08
0.0934972