/*--------------------------------*- C++ -*----------------------------------*\
| =========                 |                                                 |
| \\      /  F ield         | OpenFOAM: The Open Source CFD Toolbox           |
|  \\    /   O peration     | Version:  2406                                  |
|   \\  /    A nd           | Website:  www.openfoam.com                      |
|    \\/     M anipulation  |                                                 |
\*---------------------------------------------------------------------------*/
FoamFile
{
    version     2.0;
    format      ascii;
    arch        "LSB;label=32;scalar=64";
    class       volScalarField;
    location    "61";
    object      p;
}
// * * * * * * * * * * * * * * * * * * * * * * * * * * * * * * * * * * * * * //

dimensions      [0 2 -2 0 0 0 0];

internalField   nonuniform List<scalar> 
1500
(
28.8378
16.0156
6.17168
0.648289
-3.60631
-7.62567
-11.2465
-14.4632
-17.4773
-20.5595
14.3319
9.51393
4.41607
0.458313
-3.17014
-6.80715
-10.2295
-13.3185
-16.1209
-18.6574
9.43807
7.94796
4.84099
1.35646
-1.98765
-5.2261
-8.32734
-11.1835
-13.7051
-15.7881
7.58026
6.72493
4.4499
1.48867
-1.4858
-4.35945
-7.13862
-9.73482
-12.036
-13.9474
6.82231
6.06945
4.20946
1.64703
-1.06411
-3.72735
-6.31234
-8.73793
-10.8924
-12.6955
7.05748
6.31531
4.47946
1.9571
-0.697504
-3.28848
-5.7861
-8.11242
-10.1669
-11.8924
8.27056
7.44865
5.24874
2.41142
-0.389552
-3.03967
-5.54468
-7.82593
-9.80367
-11.4541
10.5411
9.10003
6.12311
2.86248
-0.168397
-3.00035
-5.59364
-7.8502
-9.74351
-11.3038
15.833
11.1073
6.23736
2.62845
-0.545903
-3.59954
-6.27782
-8.44458
-10.1735
-11.5722
30.7083
17.9733
8.37584
3.21914
-0.558118
-3.94753
-6.74615
-8.90196
-10.5773
-11.9166
-18.7529
-18.781
-18.8049
-18.8131
-18.8061
-18.7847
-18.7485
-18.6963
-18.6263
-18.5368
-18.4261
-18.2927
-18.135
-17.9516
-17.7411
-17.5021
-17.2333
-16.9333
-16.601
-16.2352
-15.835
-15.3995
-14.9284
-14.4215
-13.8791
-13.302
-12.6917
-12.0502
-11.3801
-10.6847
-9.96823
-9.23522
-8.49097
-7.74116
-6.99181
-6.24913
-5.51932
-4.80845
-4.12226
-3.46603
-2.84443
-2.26144
-1.72028
-1.22331
-0.772116
-0.367474
-0.00925082
0.303189
0.570979
0.795931
0.980256
1.12647
1.23732
1.31567
1.36444
1.38654
1.38476
1.3618
1.32013
1.26205
1.18961
1.10462
1.00863
0.902955
0.788611
0.666381
0.536683
0.400036
0.256297
0.106389
-18.721
-18.7501
-18.7709
-18.7754
-18.7669
-18.7458
-18.7109
-18.6604
-18.5923
-18.5048
-18.3962
-18.265
-18.1095
-17.9285
-17.7205
-17.4841
-17.2181
-16.9213
-16.5924
-16.2303
-15.8341
-15.403
-14.9364
-14.4344
-13.8971
-13.3252
-12.7199
-12.0833
-11.4178
-10.7268
-10.0143
-9.28495
-8.5438
-7.79659
-7.04934
-6.30828
-5.57962
-4.86947
-4.1836
-3.52733
-2.90538
-2.32181
-1.77992
-1.28202
-0.829733
-0.423938
-0.0646104
0.248942
0.518003
0.744366
0.930234
1.07812
1.19076
1.27101
1.32177
1.34593
1.34627
1.32544
1.28592
1.22997
1.15962
1.07665
0.982603
0.878757
0.766146
0.645564
0.517477
0.383041
0.24033
0.104933
-18.7001
-18.7342
-18.7552
-18.7579
-18.7492
-18.7299
-18.6977
-18.6502
-18.5853
-18.501
-18.3955
-18.2674
-18.1151
-17.9373
-17.7326
-17.4997
-17.2375
-16.9447
-16.6201
-16.2625
-15.8711
-15.4448
-14.9833
-14.4861
-13.9534
-13.3857
-12.7843
-12.151
-11.4885
-10.7999
-10.0893
-9.36115
-8.62064
-7.87355
-7.12599
-6.38422
-5.65449
-4.94303
-4.25587
-3.59837
-2.97532
-2.39077
-1.8479
-1.34908
-0.895905
-0.489164
-0.128855
0.185725
0.455882
0.683427
0.870586
1.01989
1.1341
1.21607
1.26872
1.29492
1.29746
1.27897
1.24192
1.18855
1.12087
1.04065
0.949407
0.84842
0.738714
0.621156
0.496107
0.365451
0.224529
0.107139
-18.7234
-18.7621
-18.7848
-18.7874
-18.7803
-18.7636
-18.7342
-18.6897
-18.6276
-18.5459
-18.4429
-18.3171
-18.1671
-17.9916
-17.7895
-17.5594
-17.3001
-17.0105
-16.6894
-16.3354
-15.9475
-15.5249
-15.0666
-14.5722
-14.0417
-13.4759
-12.8759
-12.2435
-11.5813
-10.8925
-10.181
-9.45142
-8.70932
-7.96063
-7.2115
-6.46831
-5.73741
-5.02502
-4.33709
-3.67903
-3.05564
-2.47099
-1.92829
-1.4299
-0.97731
-0.571219
-0.211541
0.102506
0.37231
0.599752
0.787121
0.936998
1.05217
1.13553
1.19
1.21845
1.22367
1.20828
1.1747
1.12517
1.06167
0.985937
0.899476
0.803553
0.699192
0.587306
0.468133
0.34414
0.208273
0.105972
-18.8189
-18.8551
-18.8743
-18.8741
-18.8659
-18.8487
-18.8191
-18.774
-18.7113
-18.629
-18.5254
-18.3991
-18.2489
-18.0734
-17.8716
-17.6421
-17.3837
-17.0951
-16.7751
-16.4223
-16.0356
-15.6137
-15.1559
-14.6618
-14.1316
-13.5657
-12.9657
-12.3332
-11.6707
-10.9815
-10.2696
-9.5399
-8.7978
-8.04929
-7.3007
-6.55856
-5.82932
-5.11928
-4.43435
-3.77989
-3.16059
-2.58035
-2.04224
-1.54845
-1.10032
-0.69836
-0.342351
-0.0313754
0.236065
0.461949
0.648629
0.798733
0.915065
1.00052
1.05799
1.09033
1.10026
1.09035
1.06298
1.0203
0.96425
0.896509
0.818532
0.731559
0.636592
0.534532
0.425625
0.312298
0.187304
0.0953218
-19.0134
-19.0302
-19.0298
-19.0147
-18.9959
-18.9701
-18.9329
-18.8812
-18.8124
-18.7247
-18.6163
-18.4857
-18.3317
-18.1531
-17.9486
-17.7169
-17.4567
-17.1668
-16.846
-16.4927
-16.1054
-15.6831
-15.225
-14.7305
-14.1998
-13.6334
-13.0325
-12.3993
-11.7364
-11.0475
-10.3366
-9.60892
-8.86999
-8.12591
-7.38306
-6.6479
-5.92683
-5.22598
-4.55107
-3.90723
-3.29889
-2.72968
-2.20239
-1.71896
-1.28043
-0.88711
-0.538549
-0.233668
0.0291642
0.252018
0.437302
0.587659
0.705874
0.794791
0.857238
0.895963
0.91359
0.912574
0.895174
0.863438
0.819185
0.764005
0.699273
0.626162
0.545633
0.45856
0.36524
0.267582
0.160892
0.0747276
-19.3354
-19.2953
-19.239
-19.1836
-19.137
-19.0906
-19.0369
-18.9717
-18.892
-18.7953
-18.6799
-18.544
-18.3856
-18.2034
-17.9961
-17.7621
-17.4999
-17.2079
-16.8846
-16.5286
-16.1386
-15.7135
-15.2527
-14.7558
-14.2229
-13.655
-13.0535
-12.4208
-11.7597
-11.074
-10.3683
-9.64775
-8.918
-8.18516
-7.45552
-6.73536
-6.03085
-5.3478
-4.69155
-4.06683
-3.47763
-2.92716
-2.4178
-1.95109
-1.52776
-1.14779
-0.810497
-0.514604
-0.258356
-0.039609
0.144062
0.29527
0.416723
0.51115
0.581235
0.629566
0.658588
0.670575
0.667602
0.651542
0.624053
0.586579
0.540373
0.486508
0.425897
0.359261
0.287293
0.21053
0.129405
0.0469811
-19.8626
-19.6515
-19.4556
-19.322
-19.2311
-19.1569
-19.085
-19.0076
-18.9192
-18.8157
-18.695
-18.5549
-18.3932
-18.2078
-17.9972
-17.7596
-17.4935
-17.1973
-16.8695
-16.5089
-16.1143
-15.6849
-15.2202
-14.7202
-14.1853
-13.6168
-13.0164
-12.3867
-11.7311
-11.0536
-10.3589
-9.65224
-8.93934
-8.22613
-7.51864
-6.8228
-6.14432
-5.48849
-4.86009
-4.26326
-3.7014
-3.17718
-2.69245
-2.24831
-1.84508
-1.48241
-1.15937
-0.874505
-0.625959
-0.411565
-0.228932
-0.0755451
0.0511561
0.153709
0.234579
0.296113
0.340509
0.369788
0.385781
0.390123
0.384259
0.369445
0.346769
0.317169
0.281467
0.240283
0.194576
0.14348
0.0933667
0.016132
-20.9902
-20.1255
-19.5834
-19.3531
-19.2258
-19.1256
-19.0419
-18.9624
-18.8739
-18.7702
-18.6486
-18.5067
-18.3419
-18.1525
-17.9371
-17.6943
-17.4226
-17.1203
-16.7861
-16.419
-16.018
-15.5829
-15.1136
-14.6106
-14.0749
-13.5079
-12.912
-12.29
-11.6456
-10.9829
-10.3067
-9.6222
-8.93492
-8.25049
-7.57447
-6.91227
-6.26894
-5.64909
-5.0568
-4.49548
-3.96786
-3.47598
-3.0211
-2.60384
-2.2241
-1.88122
-1.57403
-1.30096
-1.06009
-0.849311
-0.666332
-0.508816
-0.374433
-0.260906
-0.166068
-0.0878809
-0.0244626
0.0258993
0.0647368
0.093406
0.113094
0.124837
0.129531
0.127945
0.120812
0.108536
0.0924913
0.0702554
0.0536429
-0.0135537
-23.1874
-20.7288
-19.5522
-19.2766
-19.1546
-19.0275
-18.9277
-18.848
-18.7615
-18.6567
-18.5326
-18.3876
-18.2189
-18.024
-17.8018
-17.5515
-17.2719
-16.9614
-16.6191
-16.244
-15.8359
-15.3951
-14.9223
-14.4184
-13.885
-13.324
-12.7381
-12.1301
-11.504
-10.8639
-10.2144
-9.56054
-8.90747
-8.26032
-7.62406
-7.00341
-6.40265
-5.82563
-5.27559
-4.75519
-4.26643
-3.81066
-3.3886
-3.00034
-2.64544
-2.32295
-2.03154
-1.76958
-1.53519
-1.32636
-1.14101
-0.977075
-0.832513
-0.70539
-0.593892
-0.496345
-0.411229
-0.33718
-0.272992
-0.217611
-0.170121
-0.129727
-0.0957334
-0.0675505
-0.0445839
-0.0265548
-0.0120023
-0.00425691
0.011824
-0.0383575
-22.2653
-20.5238
-19.3229
-19.0918
-19.0242
-18.8891
-18.7639
-18.6709
-18.579
-18.469
-18.3387
-18.1871
-18.011
-17.8077
-17.5763
-17.3165
-17.0276
-16.7084
-16.3581
-15.9762
-15.5631
-15.1195
-14.6469
-14.1468
-13.6212
-13.0723
-12.5029
-11.9161
-11.3156
-10.7054
-10.09
-9.47403
-8.86204
-8.2586
-7.66801
-7.09418
-6.54061
-6.01027
-5.5056
-5.02847
-4.58016
-4.16138
-3.7723
-3.41261
-3.08155
-2.77799
-2.50054
-2.24759
-2.0174
-1.80818
-1.61813
-1.44552
-1.28868
-1.14605
-1.01622
-0.897897
-0.789942
-0.691339
-0.601209
-0.518791
-0.443428
-0.374554
-0.311668
-0.254348
-0.202141
-0.154915
-0.111237
-0.0747748
-0.0298253
-0.0556757
-19.937
-19.3414
-18.6412
-18.4973
-18.5145
-18.4643
-18.3852
-18.3159
-18.2422
-18.1459
-18.023
-17.8734
-17.6958
-17.4889
-17.2528
-16.9876
-16.6933
-16.3692
-16.015
-15.6308
-15.2173
-14.7762
-14.3092
-13.8185
-13.3063
-12.7753
-12.2282
-11.6681
-11.0987
-10.5237
-9.94721
-9.37341
-8.80633
-8.24981
-7.7074
-7.18218
-6.6768
-6.19341
-5.73364
-5.29861
-4.88894
-4.50479
-4.14592
-3.81167
-3.50113
-3.21311
-2.94626
-2.69912
-2.47019
-2.25799
-2.06108
-1.87808
-1.70774
-1.5489
-1.40052
-1.26171
-1.13165
-1.00965
-0.895129
-0.787569
-0.686537
-0.591654
-0.502586
-0.419054
-0.340735
-0.267592
-0.198434
-0.136605
-0.0684399
-0.0645544
-17.1184
-17.5293
-17.5562
-17.66
-17.8065
-17.8784
-17.8829
-17.86
-17.8167
-17.7433
-17.6352
-17.4932
-17.3188
-17.1128
-16.8762
-16.6096
-16.3135
-15.9879
-15.6331
-15.2498
-14.8395
-14.4044
-13.9466
-13.4688
-12.9736
-12.4637
-11.9419
-11.4113
-10.8754
-10.3377
-9.80183
-9.27128
-8.74948
-8.23952
-7.74409
-7.26549
-6.80552
-6.36554
-5.94647
-5.54881
-5.17265
-4.81778
-4.48365
-4.1695
-3.87435
-3.59713
-3.33664
-3.09171
-2.86113
-2.64379
-2.43859
-2.24456
-2.06082
-1.88657
-1.72111
-1.56387
-1.4143
-1.27198
-1.13654
-1.00765
-0.885038
-0.768468
-0.657719
-0.55261
-0.452934
-0.358678
-0.269027
-0.186499
-0.101291
-0.0659253
-15.3494
-16.1708
-16.5886
-16.8753
-17.1159
-17.2789
-17.3619
-17.392
-17.3832
-17.3339
-17.2418
-17.1091
-16.9395
-16.7359
-16.4999
-16.2327
-15.9354
-15.6088
-15.254
-14.8727
-14.467
-14.0394
-13.5926
-13.1295
-12.6528
-12.1653
-11.6699
-11.1696
-10.6675
-10.1667
-9.67015
-9.18086
-8.70143
-8.23415
-7.78093
-7.34327
-6.92228
-6.51868
-6.13285
-5.76487
-5.41453
-5.08142
-4.76492
-4.46431
-4.17874
-3.90731
-3.64913
-3.40331
-3.16898
-2.94535
-2.73168
-2.52733
-2.3317
-2.14431
-1.9647
-1.79251
-1.62741
-1.46914
-1.31747
-1.17221
-1.03317
-0.900194
-0.773139
-0.651881
-0.536266
-0.426307
-0.321464
-0.223422
-0.126475
-0.0622064
-14.0949
-15.0725
-15.7103
-16.1553
-16.4931
-16.7354
-16.8865
-16.9651
-16.9867
-16.9566
-16.8771
-16.7524
-16.5872
-16.3855
-16.1497
-15.8817
-15.5833
-15.2563
-14.9027
-14.525
-14.1258
-13.7079
-13.2742
-12.8275
-12.3707
-11.9065
-11.4377
-10.9669
-10.4968
-10.0301
-9.56908
-9.11597
-8.67272
-8.24088
-7.82173
-7.41616
-7.02483
-6.64804
-6.28591
-5.93832
-5.605
-5.28552
-4.9794
-4.68602
-4.40479
-4.13504
-3.87617
-3.62754
-3.3886
-3.1588
-2.9377
-2.72484
-2.51989
-2.32249
-2.1324
-1.94936
-1.77318
-1.60368
-1.44071
-1.28413
-1.13384
-0.989679
-0.851559
-0.719349
-0.592971
-0.472355
-0.357245
-0.248454
-0.143663
-0.056435
-13.2719
-14.3129
-15.0636
-15.6065
-16.0084
-16.2986
-16.4904
-16.5999
-16.6418
-16.6251
-16.5554
-16.4377
-16.2772
-16.0781
-15.8437
-15.5767
-15.2797
-14.9554
-14.6066
-14.2361
-13.8467
-13.4414
-13.023
-12.5943
-12.158
-11.7165
-11.2724
-10.828
-10.3855
-9.94689
-9.51416
-9.08889
-8.67247
-8.26601
-7.87037
-7.48617
-7.1138
-6.75346
-6.4052
-6.06894
-5.74446
-5.43149
-5.12969
-4.83866
-4.55798
-4.28725
-4.02603
-3.77394
-3.53059
-3.29563
-3.06876
-2.84968
-2.63815
-2.43395
-2.23688
-2.04677
-1.86348
-1.68687
-1.51683
-1.35324
-1.196
-1.04501
-0.900169
-0.761355
-0.628422
-0.501287
-0.379731
-0.264133
-0.153975
-0.0511876
-12.7876
-13.8273
-14.6121
-15.1972
-15.6332
-15.9513
-16.1692
-16.3015
-16.3613
-16.3583
-16.2996
-16.1908
-16.0374
-15.844
-15.6146
-15.3526
-15.0614
-14.7442
-14.404
-14.0438
-13.6666
-13.2751
-12.8721
-12.46
-12.0415
-11.6187
-11.1938
-10.769
-10.3459
-9.92638
-9.5119
-9.10384
-8.70325
-8.3111
-7.92807
-7.55473
-7.19143
-6.83845
-6.49586
-6.16372
-5.84191
-5.53033
-5.22874
-4.93696
-4.65466
-4.38161
-4.11749
-3.86207
-3.61501
-3.37612
-3.14511
-2.92182
-2.70598
-2.49748
-2.2961
-2.10175
-1.91425
-1.73353
-1.55944
-1.39192
-1.23084
-1.0761
-0.927533
-0.785064
-0.648516
-0.517777
-0.392641
-0.273187
-0.159345
-0.0479597
-12.5685
-13.5711
-14.3493
-14.9454
-15.3975
-15.7323
-15.9675
-16.1166
-16.1914
-16.2012
-16.1534
-16.0544
-15.9097
-15.7243
-15.5024
-15.2481
-14.9648
-14.656
-14.3249
-13.9744
-13.6074
-13.2265
-12.8344
-12.4335
-12.0261
-11.6142
-11.2
-10.7853
-10.3718
-9.96103
-9.55449
-9.15336
-8.75871
-8.3714
-7.99221
-7.62165
-7.26023
-6.90821
-6.56584
-6.23318
-5.9103
-5.59709
-5.29351
-4.99934
-4.71445
-4.43859
-4.17157
-3.91313
-3.66308
-3.42116
-3.18721
-2.96098
-2.74233
-2.53106
-2.32706
-2.13015
-1.94024
-1.75717
-1.58088
-1.4112
-1.24808
-1.09134
-0.940902
-0.796601
-0.658311
-0.525837
-0.398997
-0.27771
-0.161468
-0.0469245
-12.7079
-13.6228
-14.3525
-14.9284
-15.376
-15.7139
-15.9562
-16.1143
-16.1979
-16.2156
-16.1747
-16.0815
-15.9419
-15.7607
-15.5426
-15.2917
-15.0117
-14.706
-14.3779
-14.0304
-13.6663
-13.2882
-12.8987
-12.5001
-12.0948
-11.6847
-11.2719
-10.8583
-10.4454
-10.0348
-9.62803
-9.22619
-8.83038
-8.44154
-8.06041
-7.68763
-7.32369
-6.96895
-6.62367
-6.28799
-5.96198
-5.64564
-5.33888
-5.0416
-4.75362
-4.47476
-4.20482
-3.94359
-3.69085
-3.44639
-3.21
-2.98149
-2.76068
-2.54741
-2.34151
-2.14285
-1.95129
-1.76671
-1.58899
-1.41802
-1.25369
-1.09588
-0.944445
-0.799261
-0.660165
-0.526971
-0.3995
-0.277544
-0.160091
-0.0468115
-12.9978
-13.8688
-14.5671
-15.1216
-15.5536
-15.8796
-16.1126
-16.2632
-16.3406
-16.3527
-16.3069
-16.2092
-16.0654
-15.8803
-15.6586
-15.4044
-15.1213
-14.8128
-14.482
-14.132
-13.7654
-13.3849
-12.9929
-12.5919
-12.1839
-11.7712
-11.3557
-10.9391
-10.5232
-10.1096
-9.69959
-9.29444
-8.89525
-8.50296
-8.11835
-7.74209
-7.37468
-7.0165
-6.66784
-6.32886
-5.99964
-5.68018
-5.37042
-5.07026
-4.77953
-4.49807
-4.22565
-3.96208
-3.70714
-3.46062
-3.2223
-2.99199
-2.7695
-2.55467
-2.34734
-2.14735
-1.95459
-1.76891
-1.5902
-1.41835
-1.25324
-1.09475
-0.942747
-0.797094
-0.657634
-0.524199
-0.396616
-0.274592
-0.157338
-0.0469559
)
;

boundaryField
{
    inlet
    {
        type            zeroGradient;
    }
    outlet
    {
        type            fixedValue;
        value           uniform 0;
    }
    upperWall
    {
        type            zeroGradient;
    }
    lowerWall
    {
        type            zeroGradient;
    }
    frontAndBack
    {
        type            empty;
    }
}


// ************************************************************************* //
