/*--------------------------------*- C++ -*----------------------------------*\
| =========                 |                                                 |
| \\      /  F ield         | OpenFOAM: The Open Source CFD Toolbox           |
|  \\    /   O peration     | Version:  2406                                  |
|   \\  /    A nd           | Website:  www.openfoam.com                      |
|    \\/     M anipulation  |                                                 |
\*---------------------------------------------------------------------------*/
FoamFile
{
    version     2.0;
    format      ascii;
    arch        "LSB;label=32;scalar=64";
    class       surfaceScalarField;
    location    "61";
    object      phi;
}
// * * * * * * * * * * * * * * * * * * * * * * * * * * * * * * * * * * * * * //

dimensions      [0 3 -1 0 0 0 0];

oriented        oriented;

internalField   nonuniform List<scalar> 
2900
(
0.921602
0.0783978
0.820855
0.100747
0.727522
0.0933331
0.649056
0.0784656
0.587094
0.061962
0.541511
0.0455831
0.511156
0.030354
0.494885
0.0162712
0.492354
0.0025303
-0.0210057
0.513359
1.05412
0.0242808
1.09007
0.0647888
1.10506
0.078346
1.10491
0.0786174
1.09533
0.0715454
1.08157
0.0593382
1.06781
0.0441169
1.05682
0.0272545
1.0503
0.00905571
-0.012283
1.04157
1.01422
0.0100581
1.0471
0.0319122
1.08359
0.0418546
1.1181
0.0441073
1.14763
0.0420166
1.1709
0.0360702
1.18828
0.0267357
1.20071
0.0148245
1.20876
0.00100559
-0.0146247
1.2111
1.00601
0.00404843
1.02594
0.0119835
1.05219
0.0156031
1.08092
0.0153734
1.11006
0.01288
1.13768
0.00845
1.16234
0.00207575
1.18318
-0.00601954
1.19977
-0.0155772
-0.0263675
1.21151
1.00522
-0.00117248
1.02074
-0.00353689
1.04244
-0.00609488
1.06681
-0.00899393
1.09207
-0.0123833
1.11692
-0.0163965
1.14015
-0.0211575
1.1609
-0.0267727
1.17859
-0.0332703
-0.0405349
1.19276
1.00515
-0.00631858
1.02047
-0.018859
1.04187
-0.0274924
1.06589
-0.0330163
1.09082
-0.0373198
1.11541
-0.0409873
1.13851
-0.0442505
1.15928
-0.0475448
1.17723
-0.0512212
-0.0553525
1.19205
1.00579
-0.0121074
1.02524
-0.0383093
1.05089
-0.0531476
1.07903
-0.0611539
1.10755
-0.0658357
1.13441
-0.0678453
1.15806
-0.0679065
1.17769
-0.0671715
1.19295
-0.0664846
-0.0661934
1.20379
1.01414
-0.0262452
1.04665
-0.0708228
1.08234
-0.0888409
1.1152
-0.094009
1.14167
-0.0923057
1.16
-0.0861783
1.17027
-0.0781743
1.17343
-0.0703362
1.17059
-0.0636407
-0.0583196
1.16272
1.054
-0.0802475
1.08822
-0.105043
1.09926
-0.0998815
1.09236
-0.0871075
1.07278
-0.072727
1.04542
-0.0588174
1.01403
-0.0467817
0.98093
-0.0372362
0.947397
-0.0301076
-0.0250039
0.914081
0.919753
0.814709
0.714828
0.62772
0.554993
0.496176
0.449394
0.412158
0.38205
0.357046
-0.00045785
0.000457635
-0.00255766
0.00209928
-0.00569287
0.00313467
-0.00923846
0.00354507
-0.0129047
0.00366571
-0.0165949
0.00368974
-0.0202861
0.00369081
-0.0239735
0.003687
-0.0276522
0.00367826
-0.0313146
0.00366199
-0.0349516
0.00363668
-0.0385536
0.00360173
-0.0421112
0.00355734
-0.0456147
0.00350334
-0.0490536
0.00343879
-0.0524159
0.00336217
-0.055687
0.00327114
-0.0588494
0.00316244
-0.0618814
0.00303215
-0.064757
0.00287577
-0.0674455
0.0026888
-0.0699121
0.00246692
-0.072118
0.00220632
-0.0740215
0.001904
-0.075579
0.00155812
-0.0767461
0.00116777
-0.0774793
0.000733867
-0.0777366
0.000258143
-0.07748
-0.000255923
-0.0766775
-0.000801737
-0.0753053
-0.0013715
-0.0733484
-0.00195607
-0.0708021
-0.00254544
-0.0676728
-0.00312839
-0.0639779
-0.00369397
-0.0597456
-0.00423126
-0.0550144
-0.00473017
-0.0498323
-0.00518117
-0.0442549
-0.00557647
-0.038344
-0.00590994
-0.0321657
-0.00617742
-0.0257886
-0.0063761
-0.0192825
-0.00650511
-0.0127143
-0.00656725
-0.00614825
-0.00656504
0.000354733
-0.00650195
0.00673969
-0.0063839
0.0129573
-0.00621657
0.0189653
-0.00600691
0.0247286
-0.00576217
0.0302191
-0.00548938
0.0354159
-0.0051956
0.0403047
-0.00488764
0.0448778
-0.00457191
0.0491333
-0.00425432
0.0530746
-0.00394019
0.05671
-0.00363424
0.0600517
-0.00334054
0.0631154
-0.00306258
0.0659196
-0.00280325
0.0684854
-0.00256491
0.0708358
-0.00234946
0.072995
-0.00215842
0.0749889
-0.00199324
0.0768447
-0.0018554
0.0785927
-0.00174764
0.0802646
-0.00167228
0.081913
-0.00164905
0.0835433
-0.00163109
-0.00215085
-0.00273119
0.00318833
-0.00908979
0.00845639
-0.0173992
0.0114427
-0.0264713
0.0126159
-0.0357057
0.0128989
-0.0448563
0.0128392
-0.0538328
0.0126662
-0.0625987
0.0124519
-0.0711318
0.0122104
-0.079412
0.0119413
-0.0874195
0.0116434
-0.0951342
0.0113159
-0.102535
0.010958
-0.1096
0.0105676
-0.116302
0.0101409
-0.122612
0.00967163
-0.128493
0.00915206
-0.133902
0.00857257
-0.138792
0.00792233
-0.143106
0.00719012
-0.146782
0.00636563
-0.149754
0.00544033
-0.151955
0.0044081
-0.153315
0.0032659
-0.15377
0.0020147
-0.153258
0.000657345
-0.151725
-0.000797244
-0.14913
-0.00233505
-0.145444
-0.00394022
-0.14065
-0.00559398
-0.134746
-0.00727314
-0.127749
-0.0089521
-0.119688
-0.0106039
-0.110613
-0.0122007
-0.100589
-0.0137156
-0.0896942
-0.0151244
-0.0780172
-0.0164049
-0.0656585
-0.0175377
-0.0527258
-0.018507
-0.0393317
-0.0193019
-0.0255922
-0.0199149
-0.0116219
-0.0203443
0.0024696
-0.0205944
0.0165717
-0.0206671
0.0305797
-0.0205708
0.0444
-0.0203199
0.0579455
-0.019927
0.0711383
-0.019407
0.0839104
-0.0187767
0.0962046
-0.0180538
0.107974
-0.0172563
0.119183
-0.0164017
0.129805
-0.0155072
0.139824
-0.0145891
0.149235
-0.0136626
0.158039
-0.0127418
0.166247
-0.0118392
0.173875
-0.0109662
0.180947
-0.0101326
0.187493
-0.00934689
0.193546
-0.00861638
0.199146
-0.00794714
0.204333
-0.00734433
0.209154
-0.00681258
0.213655
-0.00635603
0.217888
-0.00598044
0.221903
-0.00568805
0.225758
-0.00550608
0.229494
-0.00536819
-0.00578598
-0.00514464
0.00833236
-0.0155006
0.018811
-0.028015
0.0239559
-0.0410934
0.025693
-0.0540071
0.0258115
-0.0664561
0.0252872
-0.0783253
0.0245344
-0.0895701
0.0236959
-0.10017
0.0228097
-0.110113
0.0218829
-0.119385
0.0209154
-0.127975
0.0199048
-0.135864
0.0188472
-0.143033
0.0177363
-0.149455
0.0165628
-0.155098
0.0153146
-0.159923
0.0139776
-0.163886
0.012536
-0.166936
0.0109732
-0.169019
0.00927354
-0.170077
0.00742422
-0.170053
0.00541734
-0.168893
0.00324983
-0.166549
0.000922814
-0.162981
-0.00155219
-0.158165
-0.0041565
-0.152091
-0.00687004
-0.144755
-0.00966945
-0.136168
-0.0125258
-0.126356
-0.0154047
-0.115359
-0.0182678
-0.103236
-0.0210744
-0.0900542
-0.0237837
-0.0759006
-0.0263527
-0.0608727
-0.0287419
-0.0450769
-0.0309187
-0.0286259
-0.0328544
-0.0116373
-0.0345249
0.00576885
-0.0359118
0.0234702
-0.0370018
0.041348
-0.0377913
0.0592879
-0.0382827
0.0771767
-0.0384819
0.0949102
-0.0383992
0.112391
-0.0380505
0.12953
-0.0374565
0.146244
-0.0366401
0.162465
-0.0356264
0.178133
-0.0344426
0.193197
-0.0331164
0.207619
-0.0316758
0.221367
-0.0301483
0.234422
-0.0285607
0.246773
-0.0269384
0.258418
-0.0253051
0.269361
-0.0236829
0.279615
-0.0220919
0.289201
-0.02055
0.298143
-0.0190733
0.306474
-0.0176757
0.314228
-0.0163695
0.321448
-0.0151651
0.328176
-0.0140715
0.334461
-0.0130968
0.340354
-0.012248
0.345906
-0.0115328
0.351172
-0.0109549
0.356201
-0.0105365
0.361061
-0.010229
-0.0102766
-0.00728599
0.0156179
-0.0207876
0.0323113
-0.0360724
0.0392396
-0.0512195
0.0408391
-0.0654982
0.0400893
-0.0786609
0.0384491
-0.0906442
0.0365169
-0.101451
0.034502
-0.111105
0.0324628
-0.119631
0.0304086
-0.127051
0.0283351
-0.13338
0.0262337
-0.138626
0.0240923
-0.142787
0.0218972
-0.145856
0.0196318
-0.147818
0.0172773
-0.148655
0.0148139
-0.14834
0.0122215
-0.146847
0.00948055
-0.144147
0.00657449
-0.140214
0.00349173
-0.135024
0.000228357
-0.128566
-0.00320648
-0.120846
-0.00679597
-0.111874
-0.0105231
-0.101665
-0.0143643
-0.0902472
-0.0182868
-0.0776616
-0.022254
-0.0639609
-0.0262253
-0.04921
-0.0301544
-0.033486
-0.0339908
-0.0168772
-0.0376821
0.000515996
-0.0411759
0.0185889
-0.0444248
0.0372353
-0.0473877
0.0563453
-0.0500281
0.0758043
-0.0523128
0.0954967
-0.0542167
0.115308
-0.0557228
0.13513
-0.0568222
0.154853
-0.0575144
0.174378
-0.0578067
0.19361
-0.0577127
0.212464
-0.0572517
0.230863
-0.0564485
0.248739
-0.0553322
0.266036
-0.0539354
0.282703
-0.0522928
0.298703
-0.0504407
0.314004
-0.048416
0.328585
-0.0462555
0.342433
-0.043995
0.355542
-0.0416692
0.367916
-0.0393107
0.379562
-0.0369501
0.390497
-0.0346158
0.400739
-0.0323332
0.410316
-0.0301257
0.419258
-0.0280135
0.427598
-0.026015
0.435375
-0.0241456
0.44263
-0.0224192
0.449407
-0.0208475
0.455752
-0.0194409
0.461713
-0.0182085
0.467339
-0.017159
0.472683
-0.0162998
0.477785
-0.0156389
0.482744
-0.015189
-0.014861
-0.00907985
0.0246972
-0.0244214
0.0476518
-0.04041
0.0552274
-0.0550756
0.0555038
-0.0678918
0.0529048
-0.0787964
0.049353
-0.0878674
0.0455873
-0.0952184
0.0418524
-0.100959
0.0382033
-0.105184
0.0346327
-0.107968
0.031119
-0.109372
0.027637
-0.109439
0.0241598
-0.108204
0.0206613
-0.105687
0.0171154
-0.101905
0.0134954
-0.0968669
0.00977595
-0.0905794
0.00593431
-0.0830485
0.00195009
-0.0742828
-0.00219086
-0.0642999
-0.00649066
-0.0531292
-0.0109418
-0.040803
-0.0155321
-0.0273567
-0.0202416
-0.0128369
-0.0250423
0.00269898
-0.0298995
0.0191862
-0.0347733
0.0365526
-0.0396198
0.0547168
-0.0443891
0.0735891
-0.0490263
0.0930735
-0.0534748
0.113069
-0.0576773
0.133472
-0.0615786
0.154176
-0.0651287
0.175072
-0.068284
0.196052
-0.0710074
0.217008
-0.0732692
0.23784
-0.0750485
0.258451
-0.0763336
0.278751
-0.0771219
0.298657
-0.0774196
0.318092
-0.0772415
0.336989
-0.0766094
0.355289
-0.0755513
0.372942
-0.0741008
0.389907
-0.0722958
0.406149
-0.0701773
0.421646
-0.0677885
0.436379
-0.0651738
0.450342
-0.0623776
0.463531
-0.059444
0.475952
-0.0564155
0.487617
-0.0533328
0.498541
-0.0502342
0.508748
-0.0471554
0.518262
-0.0441291
0.527114
-0.0411847
0.535338
-0.0383489
0.54297
-0.0356449
0.550049
-0.0330933
0.556616
-0.0307119
0.562714
-0.028516
0.568386
-0.0265187
0.573677
-0.0247315
0.578633
-0.0231646
0.5833
-0.0218262
0.587728
-0.020728
0.591951
-0.0198621
0.596072
-0.0193114
-0.0186937
-0.0105809
0.0352778
-0.0260014
0.0630714
-0.0398144
0.0690395
-0.0506602
0.066349
-0.0586044
0.0608484
-0.0639374
0.0546853
-0.0669524
0.0486017
-0.0679124
0.0428119
-0.0670331
0.0373235
-0.0644819
0.0320811
-0.0603889
0.0270255
-0.0548586
0.0221064
-0.0479715
0.0172724
-0.0397894
0.0124791
-0.0303629
0.00768886
-0.0197346
0.0028672
-0.0079415
-0.00201694
0.00498138
-0.00698837
0.0189934
-0.0120619
0.0340452
-0.0172425
0.0500826
-0.0225281
0.0670491
-0.0279083
0.0848822
-0.0333653
0.103514
-0.0388734
0.122871
-0.0443993
0.142874
-0.0499023
0.163437
-0.0553367
0.18447
-0.0606522
0.205874
-0.0657938
0.227552
-0.0707036
0.2494
-0.0753234
0.271319
-0.0795962
0.293209
-0.0834685
0.314973
-0.0868928
0.336518
-0.0898287
0.357754
-0.0922439
0.3786
-0.0941147
0.398978
-0.0954271
0.418821
-0.0961765
0.438068
-0.0963681
0.456664
-0.0960158
0.474564
-0.0951419
0.491731
-0.0937762
0.508135
-0.0919543
0.523752
-0.0897174
0.538567
-0.0871105
0.552571
-0.0841816
0.565764
-0.0809805
0.578148
-0.0775577
0.589734
-0.0739636
0.600538
-0.0702473
0.610579
-0.0664564
0.619883
-0.0626359
0.628477
-0.058828
0.636394
-0.0550716
0.643667
-0.0514022
0.650335
-0.0478518
0.656435
-0.0444487
0.662009
-0.0412179
0.667097
-0.0381809
0.671741
-0.0353562
0.675986
-0.0327596
0.679872
-0.0304044
0.683443
-0.0283021
0.686741
-0.0264627
0.689808
-0.0248931
0.692688
-0.0236088
0.695412
-0.0225869
0.698065
-0.0219642
-0.0211631
-0.0117516
0.047029
-0.0245176
0.0758366
-0.0317857
0.0763068
-0.034223
0.0687856
-0.0330898
0.0597145
-0.0291455
0.0507402
-0.0228787
0.0423342
-0.0146696
0.0346021
-0.00480352
0.0274569
0.00651331
0.0207638
0.0191272
0.0144112
0.0329182
0.00831499
0.0477924
0.00239789
0.0636761
-0.00340484
0.0805141
-0.00914921
0.098254
-0.0148727
0.116836
-0.020599
0.136193
-0.0263453
0.156254
-0.0321231
0.176948
-0.0379369
0.198203
-0.0437824
0.219941
-0.0496465
0.242083
-0.0555081
0.264548
-0.0613383
0.287249
-0.0671006
0.310099
-0.0727521
0.333007
-0.0782451
0.355882
-0.0835276
0.378633
-0.0885447
0.40117
-0.0932407
0.423407
-0.0975605
0.445262
-0.101452
0.46666
-0.104866
0.48753
-0.107763
0.507808
-0.110108
0.52744
-0.111876
0.546375
-0.11305
0.564573
-0.113625
0.581999
-0.113602
0.598625
-0.112995
0.614432
-0.111822
0.629404
-0.110114
0.643533
-0.107905
0.656816
-0.105238
0.669257
-0.102158
0.680862
-0.0987158
0.691645
-0.0949644
0.701622
-0.0909579
0.710816
-0.0867509
0.71925
-0.0823975
0.726953
-0.0779504
0.733956
-0.0734599
0.740294
-0.0689735
0.746002
-0.0645356
0.751117
-0.0601868
0.755679
-0.0559638
0.759727
-0.0518994
0.7633
-0.0480224
0.76644
-0.0443579
0.769187
-0.0409274
0.77158
-0.037749
0.773659
-0.0348379
0.775461
-0.0322066
0.777025
-0.0298656
0.778386
-0.0278238
0.779579
-0.0260869
0.78064
-0.0246699
0.781596
-0.0235431
0.782497
-0.0228656
-0.0219768
-0.0118221
0.0588507
-0.0154272
0.079441
-0.00838408
0.0692631
0.00422493
0.0561759
0.0196043
0.0443345
0.0368208
0.0335231
0.0554528
0.0237017
0.0751702
0.0148842
0.0957456
0.00688104
0.117028
-0.00051914
0.138922
-0.00748313
0.161368
-0.0141309
0.184304
-0.0205384
0.207664
-0.0267646
0.231372
-0.0328579
0.255357
-0.0388574
0.27955
-0.0447922
0.303887
-0.0506822
0.328303
-0.0565396
0.352734
-0.0623676
0.377112
-0.0681609
0.401371
-0.0739052
0.425441
-0.0795781
0.449252
-0.0851498
0.472735
-0.0905836
0.49582
-0.0958371
0.518438
-0.100864
0.540525
-0.105615
0.562018
-0.110038
0.58286
-0.114083
0.602999
-0.1177
0.62239
-0.120842
0.640994
-0.12347
0.658778
-0.125548
0.675718
-0.127048
0.691795
-0.127952
0.706995
-0.12825
0.721311
-0.127941
0.73474
-0.127032
0.747285
-0.12554
0.758953
-0.123491
0.769756
-0.120917
0.779708
-0.117857
0.788828
-0.114358
0.797139
-0.110469
0.804666
-0.106243
0.811438
-0.101736
0.817486
-0.097006
0.822843
-0.092109
0.827547
-0.0871013
0.831634
-0.0820373
0.835142
-0.0769685
0.838112
-0.0719434
0.840582
-0.0670064
0.842594
-0.0621982
0.844185
-0.0575552
0.845395
-0.0531095
0.846261
-0.0488889
0.846821
-0.0449174
0.847108
-0.041215
0.847158
-0.0377985
0.847001
-0.0346814
0.846669
-0.0318745
0.84619
-0.0293865
0.845591
-0.0272247
0.844896
-0.0253922
0.844128
-0.0239027
0.843309
-0.022724
0.842451
-0.0220081
-0.0211163
-0.00301424
0.0618646
0.0220761
0.05435
0.056389
0.0349495
0.0913406
0.0212237
0.125408
0.0102664
0.158572
0.000358206
0.190924
-0.00865057
0.222565
-0.016757
0.253566
-0.0241198
0.283975
-0.0309288
0.313808
-0.037316
0.343056
-0.0433791
0.371714
-0.0491975
0.399784
-0.0548346
0.427265
-0.0603384
0.454152
-0.0657443
0.480437
-0.0710775
0.506109
-0.0763543
0.531152
-0.0815827
0.555547
-0.0867624
0.57927
-0.0918843
0.602296
-0.0969313
0.624597
-0.101879
0.646143
-0.106696
0.666904
-0.111345
0.686853
-0.115785
0.70596
-0.119972
0.724203
-0.123857
0.741559
-0.127394
0.75801
-0.130535
0.773545
-0.133234
0.788153
-0.135451
0.801831
-0.137148
0.814578
-0.138295
0.826399
-0.138869
0.837301
-0.138855
0.847295
-0.138245
0.856397
-0.137043
0.864624
-0.135259
0.871997
-0.132913
0.87854
-0.130034
0.88428
-0.126658
0.889249
-0.122826
0.893478
-0.118588
0.897004
-0.113995
0.899865
-0.109105
0.902103
-0.103974
0.903759
-0.0986624
0.904877
-0.0932272
0.9055
-0.0877254
0.905674
-0.0822115
0.905442
-0.0767364
0.904845
-0.0713475
0.903927
-0.0660881
0.902725
-0.0609968
0.901277
-0.0561078
0.899618
-0.0514509
0.89778
-0.0470515
0.895793
-0.0429309
0.893685
-0.0391066
0.891478
-0.0355926
0.889197
-0.0324
0.886859
-0.0295372
0.884483
-0.0270102
0.882082
-0.0248237
0.879668
-0.0229791
0.87725
-0.0214846
0.87484
-0.0203139
0.872415
-0.0195835
-0.0187698
0.0925251
-0.0306611
0.169051
-0.0221765
0.231039
-0.027039
0.285272
-0.0330103
0.333707
-0.038169
0.377457
-0.0433919
0.417489
-0.0486833
0.454532
-0.0537998
0.489087
-0.0586755
0.521511
-0.0633526
0.552073
-0.0678787
0.580984
-0.0722901
0.608405
-0.0766188
0.634464
-0.0808936
0.659263
-0.0851373
0.682884
-0.0893652
0.705393
-0.0935862
0.726842
-0.097803
0.747271
-0.102012
0.766711
-0.106203
0.785186
-0.110359
0.802711
-0.114456
0.819297
-0.118465
0.834952
-0.122351
0.84968
-0.126073
0.863485
-0.12959
0.876368
-0.132855
0.888332
-0.135821
0.899379
-0.138441
0.909513
-0.140668
0.918738
-0.142459
0.927061
-0.143774
0.93449
-0.144577
0.941035
-0.144841
0.94671
-0.144544
0.951529
-0.143674
0.955512
-0.142228
0.95868
-0.140211
0.96106
-0.137639
0.96268
-0.134534
0.963576
-0.13093
0.963786
-0.126867
0.963351
-0.122392
0.962318
-0.117555
0.960735
-0.112413
0.958654
-0.107024
0.956126
-0.101448
0.953206
-0.0957429
0.949947
-0.089968
0.946399
-0.0841784
0.942614
-0.0784265
0.938637
-0.0727607
0.934514
-0.067225
0.930285
-0.0618591
0.925985
-0.0566977
0.921648
-0.0517708
0.9173
-0.0471039
0.912967
-0.0427184
0.908666
-0.0386314
0.904416
-0.0348566
0.900228
-0.0314046
0.89611
-0.0282831
0.89207
-0.0254973
0.88811
-0.0230505
0.88423
-0.0209444
0.880429
-0.0191782
0.876699
-0.0177541
0.87304
-0.0166556
0.869401
-0.0159445
-0.0152875
0.532294
-0.0495968
0.569775
-0.0596568
0.606442
-0.0637067
0.640924
-0.0674926
0.673464
-0.0707093
0.703613
-0.0735404
0.731295
-0.076366
0.756763
-0.0792675
0.780291
-0.0822042
0.802101
-0.085162
0.822374
-0.0881517
0.841268
-0.0911846
0.858916
-0.094267
0.875426
-0.0974036
0.890886
-0.100597
0.905369
-0.103847
0.918932
-0.107149
0.931623
-0.110494
0.943478
-0.113867
0.954525
-0.117249
0.964782
-0.120616
0.974265
-0.123938
0.982979
-0.127179
0.990929
-0.1303
0.998114
-0.133258
1.00453
-0.136007
1.01018
-0.138499
1.01504
-0.140685
1.01912
-0.142518
1.0224
-0.143951
1.02488
-0.144943
1.02656
-0.145454
1.02744
-0.145454
1.02752
-0.144919
1.02681
-0.143831
1.02532
-0.142186
1.02307
-0.139985
1.0201
-0.137241
1.01644
-0.133977
1.01213
-0.130223
1.00722
-0.126019
1.00176
-0.12141
0.995817
-0.116449
0.989452
-0.11119
0.982732
-0.105693
0.975724
-0.100016
0.968495
-0.0942187
0.96111
-0.0883583
0.953631
-0.0824901
0.946118
-0.0766654
0.938622
-0.0709316
0.931193
-0.0653316
0.923871
-0.0599035
0.916691
-0.0546804
0.909684
-0.0496907
0.902871
-0.0449584
0.89627
-0.040503
0.889891
-0.0363402
0.883741
-0.0324822
0.877822
-0.028938
0.872131
-0.025714
0.866662
-0.0228142
0.861405
-0.0202406
0.856347
-0.0179937
0.851475
-0.0160724
0.846772
-0.0144745
0.842213
-0.0131957
0.83779
-0.0122319
0.833428
-0.0115829
-0.0111485
1.02687
-0.0348882
1.01812
-0.0509127
1.01481
-0.0603923
1.01471
-0.0673918
1.01709
-0.0730918
1.02121
-0.0776582
1.02631
-0.0814692
1.03191
-0.0848714
1.03774
-0.088032
1.04361
-0.0910335
1.0494
-0.0939415
1.05503
-0.0968078
1.06043
-0.0996668
1.06556
-0.102539
1.0704
-0.105437
1.07492
-0.108364
1.07909
-0.111319
1.08289
-0.114293
1.08629
-0.11727
1.08927
-0.120228
1.09179
-0.123141
1.09383
-0.125976
1.09535
-0.128697
1.09631
-0.131261
1.09668
-0.133626
1.09642
-0.135745
1.09549
-0.13757
1.09386
-0.139056
1.0915
-0.140158
1.08839
-0.140835
1.08449
-0.14105
1.07981
-0.140774
1.07434
-0.139983
1.06808
-0.138663
1.06106
-0.136809
1.0533
-0.134426
1.04485
-0.131528
1.03574
-0.128138
1.02606
-0.124288
1.01585
-0.120019
1.00521
-0.115376
0.994209
-0.110411
0.98294
-0.10518
0.971487
-0.0997378
0.959937
-0.0941434
0.948373
-0.0884531
0.936876
-0.0827216
0.925517
-0.0770005
0.914364
-0.0713377
0.903475
-0.0657766
0.892899
-0.060356
0.882677
-0.0551101
0.872841
-0.0500678
0.863414
-0.045254
0.854412
-0.0406887
0.845841
-0.0363884
0.837703
-0.0323656
0.829993
-0.0286299
0.822698
-0.0251879
0.815803
-0.0220441
0.80929
-0.0192008
0.803134
-0.0166587
0.79731
-0.0144173
0.791791
-0.0124746
0.786546
-0.0108277
0.781545
-0.0094737
0.776753
-0.00840359
0.772147
-0.0076252
0.767647
-0.00708275
-0.0069094
1.20734
-0.0311289
1.20153
-0.0451051
1.19619
-0.0550523
1.19139
-0.0625891
1.18717
-0.0688776
1.18368
-0.0741672
1.18086
-0.0786504
1.17859
-0.082594
1.17674
-0.0861864
1.17524
-0.0895292
1.17399
-0.0926912
1.17291
-0.0957285
1.17192
-0.0986819
1.17096
-0.101577
1.16996
-0.10443
1.16884
-0.107244
1.16754
-0.11002
1.16599
-0.112748
1.16414
-0.115412
1.1619
-0.11799
1.15921
-0.120455
1.15601
-0.122776
1.15223
-0.124918
1.14781
-0.126842
1.1427
-0.128508
1.13683
-0.129876
1.13016
-0.130905
1.12267
-0.131559
1.11431
-0.131802
1.10508
-0.131606
1.09498
-0.130947
1.08402
-0.129809
1.07222
-0.128184
1.05963
-0.126072
1.0463
-0.123482
1.03231
-0.120433
1.01773
-0.116951
1.00266
-0.11307
0.987204
-0.10883
0.971461
-0.104276
0.955544
-0.0994593
0.939563
-0.0944305
0.923626
-0.0892428
0.907837
-0.0839487
0.892292
-0.0785992
0.877082
-0.0732426
0.862284
-0.0679239
0.847967
-0.062684
0.834189
-0.0575594
0.820994
-0.0525822
0.808417
-0.0477796
0.796482
-0.0431748
0.7852
-0.0387866
0.774576
-0.0346301
0.764604
-0.030717
0.755271
-0.027056
0.746559
-0.0236531
0.738441
-0.0205123
0.730888
-0.0176355
0.723867
-0.0150235
0.717342
-0.0126755
0.711273
-0.0105901
0.70562
-0.00876501
0.700343
-0.00719735
0.695398
-0.00588348
0.690745
-0.00482054
0.686341
-0.00399867
0.682149
-0.00343294
0.678102
-0.00303487
-0.00311839
1.21809
-0.0377134
1.22104
-0.0480536
1.22232
-0.0563354
1.2227
-0.0629633
1.22243
-0.0686082
1.22178
-0.0735156
1.22091
-0.0777847
1.21988
-0.0815632
1.21869
-0.0849904
1.21731
-0.088153
1.21573
-0.0911054
1.21389
-0.0938891
1.21174
-0.0965359
1.20923
-0.0990658
1.20629
-0.101489
1.20285
-0.103809
1.19886
-0.106023
1.19423
-0.10812
1.1889
-0.110086
1.18282
-0.111902
1.17591
-0.113544
1.16812
-0.114987
1.1594
-0.116201
1.14972
-0.117157
1.13903
-0.117824
1.12733
-0.118174
1.11461
-0.118179
1.10086
-0.117815
1.08613
-0.117064
1.07043
-0.115912
1.05384
-0.11435
1.03641
-0.112379
1.01823
-0.110006
0.999401
-0.107244
0.980033
-0.104113
0.960243
-0.100643
0.940158
-0.0968661
0.919909
-0.0928202
0.899626
-0.0885471
0.879441
-0.0840908
0.859478
-0.0794963
0.839856
-0.0748087
0.820685
-0.0700716
0.802063
-0.0653266
0.784076
-0.0606124
0.766798
-0.0559641
0.750287
-0.0514129
0.734589
-0.0469862
0.719736
-0.0427071
0.705749
-0.0385949
0.692635
-0.0346652
0.68039
-0.0309304
0.669003
-0.0273997
0.658453
-0.0240799
0.648711
-0.0209754
0.639744
-0.018089
0.631513
-0.0154219
0.623975
-0.0129741
0.617084
-0.0107446
0.610792
-0.00873194
0.60505
-0.00693405
0.599809
-0.00534862
0.595016
-0.0039729
0.590623
-0.00280439
0.58658
-0.00183985
0.582838
-0.00107793
0.57935
-0.000510204
0.576073
-0.000155531
0.572961
7.82037e-05
-0.000210776
1.20323
-0.0481795
1.21064
-0.0554626
1.21606
-0.0617562
1.22012
-0.0670271
1.22307
-0.0715514
1.22505
-0.0754966
1.22619
-0.0789241
1.22653
-0.0819073
1.22608
-0.0845341
1.22479
-0.0868724
1.22266
-0.0889674
1.21962
-0.0908533
1.21564
-0.0925575
1.21068
-0.0940998
1.20468
-0.0954927
1.19762
-0.0967424
1.18944
-0.0978494
1.18013
-0.0988096
1.16966
-0.0996145
1.15801
-0.100252
1.14518
-0.100706
1.13115
-0.100961
1.11595
-0.100997
1.09959
-0.100797
1.08211
-0.100342
1.06355
-0.0996157
1.04398
-0.0986056
1.02347
-0.0973013
1.0021
-0.0956973
0.979982
-0.0937928
0.957224
-0.0915921
0.933951
-0.0891054
0.910293
-0.0863477
0.88639
-0.0833396
0.862382
-0.0801056
0.838414
-0.0766745
0.814626
-0.0730778
0.791155
-0.069349
0.768131
-0.0655226
0.745674
-0.0616331
0.723892
-0.0577141
0.702881
-0.0537978
0.682724
-0.0499137
0.663486
-0.046089
0.645221
-0.0423473
0.627967
-0.0387094
0.611747
-0.0351925
0.596572
-0.0318109
0.58244
-0.0285758
0.569342
-0.0254958
0.557254
-0.0225771
0.546147
-0.0198239
0.535987
-0.0172387
0.52673
-0.0148228
0.51833
-0.012576
0.510739
-0.0104979
0.503904
-0.008587
0.497772
-0.00684166
0.492288
-0.00525999
0.487396
-0.00383989
0.483041
-0.00257933
0.479169
-0.00147624
0.475724
-0.000528429
0.472654
0.000265827
0.469907
0.000907523
0.467434
0.00139625
0.465188
0.00173578
0.463125
0.00190932
0.461219
0.00198394
0.00158031
1.20362
-0.059756
1.21222
-0.0640563
1.21834
-0.0678772
1.22239
-0.0710788
1.22457
-0.073731
1.225
-0.0759211
1.22376
-0.0776923
1.22094
-0.0790869
1.21657
-0.0801637
1.21068
-0.080979
1.20329
-0.0815762
1.19443
-0.0819895
1.18412
-0.082247
1.17239
-0.0823708
1.15927
-0.0823766
1.14481
-0.0822742
1.12902
-0.0820679
1.11197
-0.0817578
1.0937
-0.0813401
1.07426
-0.080808
1.0537
-0.0801525
1.03211
-0.0793634
1.00954
-0.0784302
0.986087
-0.0773425
0.961837
-0.0760912
0.936891
-0.0746691
0.911358
-0.0730713
0.885353
-0.0712959
0.859001
-0.0693444
0.832431
-0.0672217
0.805776
-0.0649367
0.779173
-0.0625014
0.752757
-0.0599312
0.726662
-0.0572443
0.701018
-0.0544609
0.675947
-0.051603
0.651563
-0.0486933
0.62797
-0.0457546
0.605257
-0.0428093
0.583503
-0.0398787
0.562772
-0.0369826
0.543114
-0.0341389
0.524564
-0.0313634
0.507145
-0.0286694
0.490866
-0.0260683
0.475726
-0.0235687
0.461712
-0.0211778
0.448802
-0.0189002
0.436966
-0.0167394
0.426168
-0.0146972
0.416365
-0.0127744
0.407513
-0.0109709
0.39956
-0.00928589
0.392456
-0.007718
0.386146
-0.0062659
0.380576
-0.00492764
0.375691
-0.00370172
0.371436
-0.00258617
0.367756
-0.00157968
0.364596
-0.000680372
0.361904
0.000113026
0.359627
0.000801425
0.357714
0.00138471
0.356116
0.00186349
0.354787
0.00223801
0.353677
0.00250704
0.352743
0.00267077
0.351939
0.00271451
0.351254
0.00266941
0.00226753
1.21035
-0.0663153
1.21297
-0.0666757
1.21213
-0.0670345
1.20828
-0.0672303
1.20177
-0.0672243
1.19288
-0.0670289
1.18184
-0.0666542
1.16887
-0.0661131
1.15414
-0.0654327
1.13781
-0.0646454
1.12001
-0.0637796
1.10088
-0.0628568
1.08053
-0.0618944
1.05906
-0.0609053
1.03658
-0.059898
1.01319
-0.0588761
0.98896
-0.0578399
0.96399
-0.0567861
0.93836
-0.0557093
0.912155
-0.0546025
0.885461
-0.0534576
0.858365
-0.0522665
0.830957
-0.0510213
0.80333
-0.0497151
0.775582
-0.0483423
0.747813
-0.0468989
0.720126
-0.045383
0.692625
-0.0437948
0.665418
-0.0421367
0.638611
-0.0404134
0.612306
-0.0386316
0.586606
-0.0368
0.561604
-0.0349287
0.537389
-0.033029
0.514042
-0.031113
0.491633
-0.0291929
0.470221
-0.0272808
0.449855
-0.0253886
0.430574
-0.0235269
0.412401
-0.0217057
0.395353
-0.0199334
0.379432
-0.0182176
0.364634
-0.0165638
0.350942
-0.014977
0.338334
-0.0134602
0.326782
-0.0120159
0.31625
-0.0106451
0.306699
-0.00934848
0.298086
-0.00812541
0.290364
-0.00697551
0.283488
-0.00589726
0.277407
-0.00488973
0.272073
-0.00395102
0.267435
-0.00308014
0.263445
-0.00227518
0.260053
-0.00153533
0.257211
-0.000858947
0.25487
-0.000245428
0.252984
0.000306478
0.251508
0.000796368
0.250396
0.00122494
0.249605
0.00159215
0.249092
0.00189854
0.248813
0.00214316
0.248726
0.0023256
0.24879
0.00244381
0.248967
0.00249597
0.249212
0.00247106
0.249508
0.00237402
0.00208627
1.15066
-0.0542571
1.13516
-0.0511797
1.1169
-0.0487686
1.09643
-0.0467637
1.07422
-0.0450075
1.0506
-0.0434151
1.02588
-0.0419316
1.00029
-0.0405211
0.974025
-0.0391668
0.947246
-0.0378656
0.920085
-0.036618
0.892653
-0.035424
0.865043
-0.0342831
0.837333
-0.0331939
0.809589
-0.0321532
0.781871
-0.0311565
0.754229
-0.0301975
0.726714
-0.0292695
0.69937
-0.0283648
0.672245
-0.0274761
0.645385
-0.0265961
0.618837
-0.0257183
0.592654
-0.0248369
0.566887
-0.0239473
0.541592
-0.0230459
0.516824
-0.0221305
0.492642
-0.0212001
0.469103
-0.0202547
0.446263
-0.0192957
0.424176
-0.0183256
0.402892
-0.0173476
0.382459
-0.0163657
0.362916
-0.0153847
0.344297
-0.0144091
0.326628
-0.013444
0.30993
-0.0124941
0.294214
-0.011564
0.279484
-0.0106576
0.265736
-0.00977856
0.252961
-0.00892977
0.241142
-0.00811378
0.230258
-0.00733213
0.220281
-0.00658626
0.211182
-0.00587659
0.202926
-0.0052036
0.195478
-0.0045668
0.188799
-0.00396601
0.182852
-0.00340016
0.177596
-0.0028687
0.172991
-0.00237029
0.168999
-0.0019043
0.165579
-0.00146936
0.162693
-0.00106495
0.160304
-0.00068988
0.158373
-0.000343835
0.156864
-2.57342e-05
0.15574
0.000264262
0.154969
0.000526648
0.154514
0.000761201
0.154342
0.000968467
0.15442
0.00114776
0.154713
0.00129932
0.155189
0.0014225
0.155816
0.00151711
0.15656
0.0015821
0.157389
0.00161634
0.158269
0.00161824
0.159161
0.00158094
0.160029
0.00150776
0.00140342
0.881273
-0.021448
0.849076
-0.018982
0.817534
-0.0172262
0.786681
-0.0159102
0.756541
-0.0148676
0.727129
-0.0140021
0.698452
-0.0132541
0.670517
-0.012585
0.643325
-0.0119734
0.616869
-0.0114086
0.591137
-0.0108851
0.566112
-0.0103986
0.541775
-0.00994531
0.518105
-0.00952203
0.495078
-0.00912556
0.472675
-0.0087525
0.450878
-0.00839932
0.429672
-0.00806254
0.409048
-0.00773888
0.388998
-0.00742537
0.369522
-0.00711941
0.350624
-0.0068188
0.33231
-0.00652179
0.31459
-0.00622707
0.297479
-0.00593372
0.280991
-0.00564124
0.265141
-0.00534946
0.249945
-0.00505857
0.235419
-0.00476902
0.221576
-0.00448155
0.208426
-0.00419701
0.195977
-0.00391649
0.184234
-0.00364102
0.173198
-0.00337174
0.162864
-0.00310961
0.153226
-0.00285562
0.144274
-0.00261051
0.135992
-0.00237499
0.128364
-0.00214947
0.121369
-0.00193439
0.114986
-0.00172981
0.10919
-0.0015359
0.103957
-0.00135243
0.0992608
-0.00117935
0.0950742
-0.00101624
0.091371
-0.000862893
0.0881246
-0.000718797
0.0853087
-0.000583676
0.0828978
-0.000457006
0.0808665
-0.00033853
0.0791907
-0.000227772
0.0778463
-0.000124546
0.0768103
-2.84644e-05
0.0760602
6.053e-05
0.075574
0.00014269
0.0753305
0.00021797
0.0753084
0.00028662
0.0754867
0.000348421
0.0758447
0.000403412
0.0763619
0.000451389
0.0770176
0.000492306
0.0777912
0.000525901
0.078662
0.000552126
0.079609
0.000570672
0.0806109
0.000581351
0.0816449
0.000583957
0.0826872
0.000578144
0.0837099
0.000560435
0.0846741
0.000544919
0.000596907
0.335599
0.316617
0.299391
0.283481
0.268613
0.254611
0.241357
0.228773
0.216799
0.205391
0.194506
0.184108
0.174163
0.164641
0.155516
0.146763
0.138364
0.130302
0.122563
0.115138
0.108019
0.1012
0.0946785
0.0884516
0.082518
0.0768769
0.0715276
0.0664691
0.0617002
0.0572188
0.0530219
0.0491055
0.0454646
0.042093
0.0389835
0.036128
0.0335176
0.0311427
0.0289934
0.0270591
0.0253294
0.0237936
0.0224413
0.0212621
0.0202459
0.0193831
0.0186644
0.0180809
0.0176239
0.0172855
0.0170578
0.0169333
0.0169049
0.0169655
0.0171082
0.0173262
0.0176128
0.0179613
0.0183647
0.0188161
0.0193084
0.0198344
0.0203866
0.0209574
0.0215389
0.0221231
0.0227016
0.0232623
0.0238073
)
;

boundaryField
{
    inlet
    {
        type            calculated;
        value           nonuniform List<scalar> 10(-1 -1 -1 -1 -1 -1 -1 -1 -1 -1);
    }
    outlet
    {
        type            calculated;
        value           nonuniform List<scalar> 
20
(
0.0856939
0.233128
0.365551
0.487328
0.599905