/*--------------------------------*- C++ -*----------------------------------*\
| =========                 |                                                 |
| \\      /  F ield         | OpenFOAM: The Open Source CFD Toolbox           |
|  \\    /   O peration     | Version:  2406                                  |
|   \\  /    A nd           | Website:  www.openfoam.com                      |
|    \\/     M anipulation  |                                                 |
\*---------------------------------------------------------------------------*/
FoamFile
{
    version     2.0;
    format      ascii;
    arch        "LSB;label=32;scalar=64";
    class       volVectorField;
    location    "61";
    object      U;
}
// * * * * * * * * * * * * * * * * * * * * * * * * * * * * * * * * * * * * * //

dimensions      [0 1 -1 0 0 0 0];

internalField   nonuniform List<vector> 
1500
(
(9.35593 0.345687 0)
(8.58593 0.649409 0)
(7.77346 0.631758 0)
(6.88538 0.487454 0)
(6.1362 0.328876 0)
(5.59761 0.192076 0)
(5.23146 0.0840216 0)
(5.00093 3.81938e-05 0)
(4.91017 -0.0700094 0)
(4.86584 -0.281404 0)
(10.218 0.490488 0)
(10.7266 0.994312 0)
(11.0323 1.10521 0)
(11.0932 1.04184 0)
(11.015 0.906504 0)
(10.8846 0.733348 0)
(10.743 0.543797 0)
(10.6145 0.350159 0)
(10.5225 0.154196 0)
(10.4512 -0.0767227 0)
(10.0252 0.19123 0)
(10.2642 0.440726 0)
(10.6375 0.552165 0)
(11.0183 0.586152 0)
(11.3448 0.567159 0)
(11.6068 0.497842 0)
(11.808 0.387105 0)
(11.955 0.246574 0)
(12.056 0.0832263 0)
(12.11 -0.107579 0)
(10.0104 0.0705712 0)
(10.1295 0.18974 0)
(10.3645 0.254705 0)
(10.6575 0.271977 0)
(10.9574 0.25546 0)
(11.2439 0.209786 0)
(11.507 0.137735 0)
(11.7366 0.043363 0)
(11.9244 -0.069475 0)
(12.0676 -0.197757 0)
(10.0106 0.0136854 0)
(10.1068 0.0385296 0)
(10.2941 0.0454459 0)
(10.5364 0.0314095 0)
(10.7934 0.00134759 0)
(11.047 -0.0419845 0)
(11.2889 -0.0979745 0)
(11.5109 -0.166031 0)
(11.705 -0.245199 0)
(11.8655 -0.333612 0)
(10.0105 -0.0366258 0)
(10.1053 -0.108734 0)
(10.2901 -0.166912 0)
(10.529 -0.211019 0)
(10.7825 -0.248911 0)
(11.033 -0.286098 0)
(11.2729 -0.325751 0)
(11.4944 -0.370521 0)
(11.6897 -0.421964 0)
(11.8545 -0.479603 0)
(10.0098 -0.0921441 0)
(10.1252 -0.255872 0)
(10.3547 -0.369966 0)
(10.6416 -0.444574 0)
(10.9356 -0.496639 0)
(11.2156 -0.533198 0)
(11.4702 -0.559335 0)
(11.6888 -0.581477 0)
(11.8644 -0.604415 0)
(11.995 -0.629821 0)
(10.0246 -0.211454 0)
(10.2619 -0.504599 0)
(10.6308 -0.666132 0)
(11.0005 -0.758035 0)
(11.3045 -0.80515 0)
(11.5277 -0.811499 0)
(11.6696 -0.789059 0)
(11.7352 -0.754564 0)
(11.7344 -0.719834 0)
(11.6784 -0.690114 0)
(10.2196 -0.5089 0)
(10.7216 -1.04801 0)
(11.0009 -1.19442 0)
(11.009 -1.16728 0)
(10.8475 -1.06963 0)
(10.6001 -0.938407 0)
(10.3037 -0.799621 0)
(9.97887 -0.673067 0)
(9.6429 -0.568029 0)
(9.307 -0.485808 0)
(9.35047 -0.354303 0)
(8.55149 -0.671707 0)
(7.6853 -0.663869 0)
(6.71986 -0.526514 0)
(5.87315 -0.374384 0)
(5.21588 -0.246471 0)
(4.70321 -0.152569 0)
(4.29148 -0.091325 0)
(3.95849 -0.0555161 0)
(3.68627 -0.0366077 0)
(0.000486398 -0.000690118 0)
(-0.0127131 0.00308376 0)
(-0.0397254 0.0055764 0)
(-0.0740591 0.00641987 0)
(-0.110595 0.00668398 0)
(-0.147537 0.00683097 0)
(-0.184487 0.00699129 0)
(-0.221396 0.00717425 0)
(-0.25824 0.00736076 0)
(-0.294961 0.00753566 0)
(-0.331476 0.00769284 0)
(-0.36769 0.00782948 0)
(-0.403508 0.00794919 0)
(-0.438836 0.00805542 0)
(-0.473573 0.00814943 0)
(-0.507609 0.00823239 0)
(-0.540812 0.00830343 0)
(-0.573024 0.00835653 0)
(-0.60405 0.00838311 0)
(-0.63365 0.00836947 0)
(-0.661541 0.00830226 0)
(-0.687395 0.00816634 0)
(-0.71084 0.00794566 0)
(-0.731474 0.00762261 0)
(-0.748866 0.00718105 0)
(-0.762575 0.00660464 0)
(-0.772156 0.00588279 0)
(-0.77718 0.00501293 0)
(-0.777241 0.00400316 0)
(-0.771984 0.00286548 0)
(-0.761133 0.00161035 0)
(-0.744488 0.000256042 0)
(-0.72195 -0.00117497 0)
(-0.693528 -0.00264984 0)
(-0.65934 -0.0041344 0)
(-0.619618 -0.00559397 0)
(-0.574697 -0.00699751 0)
(-0.525012 -0.00830971 0)
(-0.471084 -0.00949771 0)
(-0.413506 -0.0105361 0)
(-0.35292 -0.0114068 0)
(-0.290004 -0.0120936 0)
(-0.225455 -0.0125891 0)
(-0.159955 -0.0129025 0)
(-0.0941659 -0.0130371 0)
(-0.0287375 -0.0129898 0)
(0.0357586 -0.0127551 0)
(0.0988404 -0.0123581 0)
(0.160046 -0.011847 0)
(0.218969 -0.0112473 0)
(0.27529 -0.0105797 0)
(0.328766 -0.00986548 0)
(0.379222 -0.00912482 0)
(0.426547 -0.00837618 0)
(0.470694 -0.00763585 0)
(0.511672 -0.00691802 0)
(0.549541 -0.00623451 0)
(0.584403 -0.00559499 0)
(0.616399 -0.00500705 0)
(0.645702 -0.00447642 0)
(0.67251 -0.00400718 0)
(0.697045 -0.003602 0)
(0.719543 -0.00326292 0)
(0.740255 -0.00299231 0)
(0.759446 -0.00279362 0)
(0.777405 -0.00267931 0)
(0.794399 -0.00265548 0)
(0.810899 -0.00281691 0)
(0.827272 -0.002819 0)
(0.849985 -0.00682131 0)
(-0.00530872 0.0140357 0)
(-0.0536472 0.0443365 0)
(-0.129166 0.0632557 0)
(-0.21835 0.0711517 0)
(-0.310965 0.0735467 0)
(-0.403272 0.0739237 0)
(-0.494037 0.073717 0)
(-0.582805 0.0733344 0)
(-0.669341 0.0728187 0)
(-0.753447 0.0721409 0)
(-0.834926 0.0712811 0)
(-0.91358 0.0702354 0)
(-0.989208 0.0690037 0)
(-1.06159 0.0675803 0)
(-1.13049 0.0659481 0)
(-1.19563 0.0640751 0)
(-1.25668 0.0619141 0)
(-1.31324 0.0594039 0)
(-1.36486 0.0564699 0)
(-1.41102 0.0530321 0)
(-1.45112 0.0490102 0)
(-1.48452 0.0443308 0)
(-1.51055 0.0389291 0)
(-1.52851 0.0327561 0)
(-1.53773 0.0257832 0)
(-1.53757 0.0180073 0)
(-1.52743 0.00946904 0)
(-1.50685 0.00023039 0)
(-1.47547 -0.00962849 0)
(-1.43307 -0.0199894 0)
(-1.37953 -0.0307018 0)
(-1.31494 -0.0415949 0)
(-1.23952 -0.0524789 0)
(-1.15368 -0.0631535 0)
(-1.05799 -0.0734242 0)
(-0.953166 -0.0831067 0)
(-0.840059 -0.0920252 0)
(-0.719618 -0.100022 0)
(-0.592889 -0.106974 0)
(-0.460977 -0.1128 0)
(-0.325032 -0.117427 0)
(-0.186231 -0.120817 0)
(-0.0457552 -0.122984 0)
(0.0953215 -0.123945 0)
(0.236033 -0.123754 0)
(0.375372 -0.1225 0)
(0.512382 -0.120246 0)
(0.646237 -0.117095 0)
(0.776206 -0.113191 0)
(0.90166 -0.10866 0)
(1.02208 -0.103627 0)
(1.13705 -0.0982155 0)
(1.24626 -0.0925442 0)
(1.3495 -0.0867262 0)
(1.44667 -0.0808663 0)
(1.53774 -0.0750599 0)
(1.62278 -0.0693919 0)
(1.70191 -0.0639372 0)
(1.77536 -0.0587599 0)
(1.84338 -0.0539145 0)
(1.9063 -0.0494459 0)
(1.96448 -0.0453913 0)
(2.01831 -0.0417812 0)
(2.06825 -0.0386431 0)
(2.11475 -0.0360033 0)
(2.15831 -0.0339048 0)
(2.19935 -0.0323731 0)
(2.23884 -0.0316687 0)
(2.27485 -0.0312471 0)
(2.32356 -0.0366002 0)
(-0.0118627 0.0533537 0)
(-0.0964597 0.128446 0)
(-0.214127 0.16881 0)
(-0.345229 0.184248 0)
(-0.47654 0.187393 0)
(-0.603804 0.18564 0)
(-0.725541 0.182163 0)
(-0.841161 0.17802 0)
(-0.950408 0.173464 0)
(-1.05314 0.168528 0)
(-1.14923 0.16321 0)
(-1.23857 0.157502 0)
(-1.32101 0.151386 0)
(-1.39636 0.144827 0)
(-1.46438 0.137763 0)
(-1.52479 0.130102 0)
(-1.57723 0.121732 0)
(-1.62129 0.112517 0)
(-1.65649 0.102312 0)
(-1.6823 0.0909723 0)
(-1.69814 0.0783698 0)
(-1.70344 0.0644021 0)
(-1.69764 0.0490041 0)
(-1.68023 0.0321618 0)
(-1.65072 0.0139378 0)
(-1.60881 -0.00556827 0)
(-1.55435 -0.0262148 0)
(-1.48727 -0.0478093 0)
(-1.40757 -0.0701232 0)
(-1.31546 -0.0928861 0)
(-1.21126 -0.11578 0)
(-1.09547 -0.138459 0)
(-0.968712 -0.160572 0)
(-0.831776 -0.18176 0)
(-0.685584 -0.201685 0)
(-0.531169 -0.220048 0)
(-0.369627 -0.23659 0)
(-0.202126 -0.251089 0)
(-0.0299109 -0.263361 0)
(0.145799 -0.273265 0)
(0.323894 -0.280745 0)
(0.503223 -0.285812 0)
(0.682597 -0.288506 0)
(0.860926 -0.288885 0)
(1.0372 -0.287067 0)
(1.21048 -0.283225 0)
(1.37992 -0.277537 0)
(1.54474 -0.270201 0)
(1.70431 -0.261436 0)
(1.85808 -0.251468 0)
(2.00559 -0.240528 0)
(2.1465 -0.228843 0)
(2.28056 -0.216634 0)
(2.40762 -0.204113 0)
(2.5276 -0.191478 0)
(2.64052 -0.17891 0)
(2.74648 -0.166577 0)
(2.84563 -0.154628 0)
(2.93821 -0.143194 0)
(3.0245 -0.132389 0)
(3.10484 -0.122313 0)
(3.17961 -0.113051 0)
(3.24925 -0.104673 0)
(3.3142 -0.0972449 0)
(3.37496 -0.0908225 0)
(3.43209 -0.085474 0)
(3.48591 -0.0812265 0)
(3.53787 -0.0783386 0)
(3.5836 -0.0761628 0)
(3.6475 -0.0785998 0)
(-0.0180085 0.116223 0)
(-0.133863 0.250185 0)
(-0.282228 0.311748 0)
(-0.437977 0.33039 0)
(-0.586366 0.329116 0)
(-0.723866 0.319974 0)
(-0.849607 0.308045 0)
(-0.963488 0.295116 0)
(-1.06571 0.281692 0)
(-1.15653 0.267874 0)
(-1.23621 0.253659 0)
(-1.30492 0.239008 0)
(-1.36279 0.22385 0)
(-1.40982 0.20809 0)
(-1.446 0.191601 0)
(-1.47121 0.174223 0)
(-1.48526 0.155779 0)
(-1.48793 0.136083 0)
(-1.47897 0.114948 0)
(-1.45807 0.092201 0)
(-1.42497 0.0677102 0)
(-1.3794 0.0414134 0)
(-1.32114 0.0133479 0)
(-1.25021 -0.0164017 0)
(-1.1667 -0.0476818 0)
(-1.07072 -0.0802623 0)
(-0.962465 -0.113851 0)
(-0.842293 -0.148149 0)
(-0.710674 -0.18282 0)
(-0.568197 -0.217453 0)
(-0.415572 -0.251598 0)
(-0.253627 -0.284779 0)
(-0.0832789 -0.316525 0)
(0.0943334 -0.346357 0)
(0.278153 -0.373867 0)
(0.467187 -0.398714 0)
(0.66028 -0.420579 0)
(0.856282 -0.439205 0)
(1.05404 -0.454405 0)
(1.25244 -0.466063 0)
(1.45038 -0.474149 0)
(1.64683 -0.478707 0)
(1.84081 -0.479827 0)
(2.03141 -0.477652 0)
(2.21782 -0.472382 0)
(2.39934 -0.464264 0)
(2.57532 -0.453578 0)
(2.74524 -0.440622 0)
(2.90865 -0.425716 0)
(3.06521 -0.409183 0)
(3.21466 -0.391352 0)
(3.35682 -0.372543 0)
(3.49162 -0.353066 0)
(3.61902 -0.333215 0)
(3.7391 -0.313267 0)
(3.85196 -0.293477 0)
(3.9578 -0.274079 0)
(4.05683 -0.255281 0)
(4.14935 -0.23727 0)
(4.23568 -0.220212 0)
(4.31618 -0.204249 0)
(4.39124 -0.189505 0)
(4.46129 -0.176089 0)
(4.52679 -0.164095 0)
(4.58819 -0.153607 0)
(4.64605 -0.14471 0)
(4.70059 -0.137457 0)
(4.75353 -0.132009 0)
(4.79922 -0.128149 0)
(4.86559 -0.126576 0)
(-0.0240235 0.198802 0)
(-0.163415 0.397666 0)
(-0.325137 0.473362 0)
(-0.481743 0.485769 0)
(-0.619856 0.471388 0)
(-0.73832 0.447265 0)
(-0.83789 0.420231 0)
(-0.919686 0.392646 0)
(-0.984873 0.365141 0)
(-1.03448 0.337774 0)
(-1.06935 0.310447 0)
(-1.09015 0.283018 0)
(-1.09741 0.255306 0)
(-1.09151 0.227122 0)
(-1.0727 0.198258 0)
(-1.04119 0.168487 0)
(-0.997073 0.13759 0)
(-0.940438 0.105369 0)
(-0.871338 0.0716332 0)
(-0.789823 0.0362248 0)
(-0.696015 -0.000951045 0)
(-0.590136 -0.0398798 0)
(-0.472568 -0.0804436 0)
(-0.343587 -0.122449 0)
(-0.203593 -0.165672 0)
(-0.0530546 -0.209817 0)
(0.107345 -0.254507 0)
(0.276852 -0.299337 0)
(0.454735 -0.343856 0)
(0.640159 -0.387551 0)
(0.832192 -0.429877 0)
(1.02985 -0.470277 0)
(1.2321 -0.508204 0)
(1.43789 -0.543167 0)
(1.64614 -0.574732 0)
(1.85577 -0.602506 0)
(2.06568 -0.626162 0)
(2.27485 -0.645459 0)
(2.48227 -0.660245 0)
(2.68701 -0.670454 0)
(2.88821 -0.676109 0)
(3.08506 -0.677317 0)
(3.27686 -0.674253 0)
(3.46295 -0.667156 0)
(3.64281 -0.656318 0)
(3.81597 -0.642078 0)
(3.98207 -0.624805 0)
(4.1408 -0.604894 0)
(4.29197 -0.582751 0)
(4.43546 -0.558787 0)
(4.57121 -0.53341 0)
(4.69924 -0.507017 0)
(4.81964 -0.479988 0)
(4.93254 -0.452683 0)
(5.03813 -0.425437 0)
(5.13667 -0.398559 0)
(5.22843 -0.372329 0)
(5.31373 -0.346997 0)
(5.39292 -0.322789 0)
(5.46638 -0.299899 0)
(5.53452 -0.278498 0)
(5.59774 -0.258736 0)
(5.65648 -0.24074 0)
(5.71119 -0.224622 0)
(5.7623 -0.210481 0)
(5.81035 -0.198406 0)
(5.85552 -0.188492 0)
(5.89948 -0.18074 0)
(5.93688 -0.175645 0)
(5.99281 -0.170694 0)
(-0.0306121 0.2978 0)
(-0.184656 0.555851 0)
(-0.33502 0.629567 0)
(-0.460042 0.621462 0)
(-0.553503 0.583218 0)
(-0.619051 0.535996 0)
(-0.660036 0.487585 0)
(-0.679291 0.440444 0)
(-0.67921 0.394997 0)
(-0.661679 0.351036 0)
(-0.628166 0.308228 0)
(-0.579825 0.266186 0)
(-0.517561 0.22451 0)
(-0.442087 0.182869 0)
(-0.353947 0.14095 0)
(-0.25358 0.0984374 0)
(-0.141378 0.0550493 0)
(-0.0176627 0.0105371 0)
(0.117208 -0.0352842 0)
(0.262712 -0.0825061 0)
(0.418308 -0.131116 0)
(0.583491 -0.181017 0)
(0.757663 -0.232062 0)
(0.940181 -0.284016 0)
(1.13034 -0.33657 0)
(1.32736 -0.38935 0)
(1.53043 -0.441954 0)
(1.73866 -0.493897 0)
(1.9511 -0.544616 0)
(2.16677 -0.593532 0)
(2.38466 -0.640052 0)
(2.60375 -0.683591 0)
(2.82304 -0.723593 0)
(3.04154 -0.759557 0)
(3.2583 -0.791047 0)
(3.47241 -0.817707 0)
(3.683 -0.839265 0)
(3.88928 -0.855541 0)
(4.09053 -0.866451 0)
(4.28609 -0.872006 0)
(4.47541 -0.872309 0)
(4.65797 -0.867544 0)
(4.83338 -0.857973 0)
(5.00128 -0.843917 0)
(5.16141 -0.825755 0)
(5.31358 -0.803905 0)
(5.45768 -0.778818 0)
(5.59365 -0.750963 0)
(5.72151 -0.72082 0)
(5.84133 -0.688868 0)
(5.95323 -0.655578 0)
(6.0574 -0.621406 0)
(6.15406 -0.586786 0)
(6.24347 -0.552123 0)
(6.32595 -0.517796 0)
(6.40181 -0.484149 0)
(6.47143 -0.451494 0)
(6.53517 -0.420108 0)
(6.59344 -0.390237 0)
(6.64665 -0.362094 0)
(6.69521 -0.335863 0)
(6.73955 -0.311703 0)
(6.7801 -0.289749 0)
(6.81729 -0.270117 0)
(6.85152 -0.252911 0)
(6.88328 -0.23821 0)
(6.91278 -0.226151 0)
(6.94128 -0.216576 0)
(6.9652 -0.210624 0)
(7.00137 -0.203353 0)
(-0.0384855 0.4152 0)
(-0.194269 0.705358 0)
(-0.294237 0.746264 0)
(-0.340599 0.699342 0)
(-0.344797 0.62755 0)
(-0.317819 0.55186 0)
(-0.265617 0.479123 0)
(-0.192394 0.411045 0)
(-0.101398 0.347241 0)
(0.00501122 0.286828 0)
(0.125026 0.229046 0)
(0.257338 0.17321 0)
(0.400933 0.118673 0)
(0.554878 0.0648732 0)
(0.718616 0.0113144 0)
(0.891654 -0.0423744 0)
(1.07344 -0.0964685 0)
(1.26332 -0.151179 0)
(1.46059 -0.206644 0)
(1.66455 -0.262904 0)
(1.87449 -0.319892 0)
(2.08965 -0.377474 0)
(2.30927 -0.435447 0)
(2.53253 -0.493529 0)
(2.75859 -0.551363 0)
(2.98658 -0.608525 0)
(3.21561 -0.664533 0)
(3.44477 -0.718861 0)
(3.67314 -0.770951 0)
(3.89981 -0.820225 0)
(4.12389 -0.866107 0)
(4.34455 -0.908039 0)
(4.561 -0.945509 0)
(4.7725 -0.978064 0)
(4.97838 -1.00533 0)
(5.17805 -1.02701 0)
(5.37099 -1.04292 0)
(5.55674 -1.05294 0)
(5.73491 -1.05707 0)
(5.90522 -1.0554 0)
(6.06741 -1.0481 0)
(6.22131 -1.03544 0)
(6.36681 -1.01775 0)
(6.50386 -0.995413 0)
(6.63245 -0.968882 0)
(6.75265 -0.938634 0)
(6.86454 -0.90518 0)
(6.96829 -0.869044 0)
(7.06407 -0.830757 0)
(7.15214 -0.790846 0)
(7.23275 -0.749825 0)
(7.3062 -0.708188 0)
(7.37282 -0.666403 0)
(7.43296 -0.624907 0)
(7.48698 -0.584102 0)
(7.53527 -0.544353 0)
(7.57822 -0.505987 0)
(7.61623 -0.469295 0)
(7.6497 -0.43453 0)
(7.67904 -0.401909 0)
(7.70464 -0.371621 0)
(7.72691 -0.343821 0)
(7.74622 -0.318642 0)
(7.76296 -0.296195 0)
(7.7775 -0.276577 0)
(7.7902 -0.259853 0)
(7.80134 -0.246179 0)
(7.81153 -0.235284 0)
(7.81984 -0.228694 0)
(7.83176 -0.220108 0)
(-0.0490826 0.563397 0)
(-0.165063 0.814177 0)
(-0.138313 0.769371 0)
(-0.0312774 0.667328 0)
(0.112796 0.560236 0)
(0.277583 0.45774 0)
(0.457951 0.363694 0)
(0.650493 0.278575 0)
(0.852502 0.200658 0)
(1.06221 0.128072 0)
(1.27822 0.0593267 0)
(1.50011 -0.00658835 0)
(1.72718 -0.0704151 0)
(1.95886 -0.132756 0)
(2.19441 -0.194096 0)
(2.43305 -0.2548 0)
(2.67411 -0.315136 0)
(2.91692 -0.375287 0)
(3.16085 -0.435363 0)
(3.40525 -0.495396 0)
(3.64947 -0.555335 0)
(3.89283 -0.615047 0)
(4.13466 -0.674312 0)
(4.37425 -0.732831 0)
(4.61091 -0.790236 0)
(4.84393 -0.846099 0)
(5.07263 -0.899944 0)
(5.29633 -0.951261 0)
(5.51439 -0.999518 0)
(5.7262 -1.04418 0)
(5.93123 -1.08472 0)
(6.12899 -1.12065 0)
(6.31905 -1.15152 0)
(6.50106 -1.17695 0)
(6.67473 -1.19665 0)
(6.83985 -1.2104 0)
(6.99625 -1.21806 0)
(7.14382 -1.21962 0)
(7.28253 -1.21512 0)
(7.41238 -1.20471 0)
(7.53341 -1.18864 0)
(7.64572 -1.1672 0)
(7.74944 -1.14079 0)
(7.84473 -1.10984 0)
(7.93182 -1.07483 0)
(8.01093 -1.03629 0)
(8.08234 -0.994766 0)
(8.14635 -0.950811 0)
(8.20329 -0.90499 0)
(8.2535 -0.857857 0)
(8.29735 -0.80995 0)
(8.33523 -0.761784 0)
(8.36752 -0.713843 0)
(8.39463 -0.666574 0)
(8.41694 -0.620389 0)
(8.43486 -0.575658 0)
(8.44877 -0.532709 0)
(8.45906 -0.491829 0)
(8.46611 -0.453268 0)
(8.47026 -0.417237 0)
(8.47186 -0.383912 0)
(8.47125 -0.353441 0)
(8.46874 -0.325943 0)
(8.46461 -0.301514 0)
(8.45916 -0.280238 0)
(8.45261 -0.262161 0)
(8.44532 -0.247431 0)
(8.43705 -0.235728 0)
(8.42988 -0.228651 0)
(8.41714 -0.219614 0)
(-0.0081513 0.658677 0)
(0.0678526 0.776291 0)
(0.37116 0.608317 0)
(0.73362 0.45725 0)
(1.08527 0.331474 0)
(1.42165 0.217622 0)
(1.74865 0.114351 0)
(2.06875 0.0222832 0)
(2.38209 -0.0605713 0)
(2.68906 -0.136694 0)
(2.99032 -0.207813 0)
(3.28577 -0.275139 0)
(3.57532 -0.339568 0)
(3.85896 -0.401814 0)
(4.13671 -0.462419 0)
(4.40857 -0.521789 0)
(4.67446 -0.580221 0)
(4.93429 -0.637925 0)
(5.18791 -0.695028 0)
(5.43516 -0.751567 0)
(5.67581 -0.807488 0)
(5.90963 -0.862651 0)
(6.13635 -0.916829 0)
(6.35566 -0.969725 0)
(6.56728 -1.02098 0)
(6.77092 -1.07017 0)
(6.96627 -1.11686 0)
(7.15309 -1.16056 0)
(7.33114 -1.20078 0)
(7.50022 -1.23705 0)
(7.66018 -1.26889 0)
(7.81091 -1.29587 0)
(7.95234 -1.31762 0)
(8.08446 -1.33382 0)
(8.20728 -1.34422 0)
(8.32086 -1.34865 0)
(8.4253 -1.34704 0)
(8.52074 -1.33939 0)
(8.60732 -1.32581 0)
(8.68525 -1.30647 0)
(8.75475 -1.28165 0)
(8.81609 -1.25169 0)
(8.86954 -1.21699 0)
(8.91543 -1.17803 0)
(8.95411 -1.13532 0)
(8.98594 -1.0894 0)
(9.01132 -1.04085 0)
(9.03068 -0.990239 0)
(9.04444 -0.938153 0)
(9.05303 -0.885157 0)
(9.05691 -0.831799 0)
(9.0565 -0.778595 0)
(9.05226 -0.726029 0)
(9.04458 -0.674545 0)
(9.03388 -0.624545 0)
(9.02055 -0.576387 0)
(9.00493 -0.530384 0)
(8.98737 -0.486807 0)
(8.96818 -0.445887 0)
(8.94764 -0.407815 0)
(8.92601 -0.372748 0)
(8.90352 -0.340811 0)
(8.88038 -0.312104 0)
(8.85677 -0.286701 0)
(8.83286 -0.264663 0)
(8.80872 -0.246015 0)
(8.78473 -0.230868 0)
(8.75986 -0.218924 0)
(8.73889 -0.211557 0)
(8.70416 -0.202873 0)
(0.829688 0.191524 0)
(1.36154 0.222702 0)
(1.97506 0.0918451 0)
(2.58432 -0.0295106 0)
(3.10946 -0.123498 0)
(3.5666 -0.206685 0)
(3.98199 -0.284093 0)
(4.3663 -0.355191 0)
(4.72374 -0.420247 0)
(5.05793 -0.480592 0)
(5.37223 -0.537437 0)
(5.66916 -0.591601 0)
(5.95049 -0.643721 0)
(6.21761 -0.694338 0)
(6.47166 -0.743885 0)
(6.71358 -0.792673 0)
(6.94409 -0.840913 0)
(7.16377 -0.888724 0)
(7.37308 -0.936148 0)
(7.57237 -0.98315 0)
(7.7619 -1.02961 0)
(7.94186 -1.07534 0)
(8.1124 -1.12008 0)
(8.2736 -1.16351 0)
(8.42551 -1.20524 0)
(8.56818 -1.24486 0)
(8.70163 -1.28193 0)
(8.82587 -1.31598 0)
(8.94092 -1.34654 0)
(9.04682 -1.37315 0)
(9.1436 -1.39537 0)
(9.23132 -1.4128 0)
(9.31005 -1.42508 0)
(9.37989 -1.43193 0)
(9.44095 -1.43311 0)
(9.49338 -1.4285 0)
(9.53733 -1.41803 0)
(9.57302 -1.40174 0)
(9.60068 -1.37975 0)
(9.62059 -1.35227 0)
(9.63307 -1.31961 0)
(9.63849 -1.28214 0)
(9.63724 -1.24029 0)
(9.62978 -1.19456 0)
(9.61656 -1.1455 0)
(9.59811 -1.09368 0)
(9.57493 -1.03968 0)
(9.54755 -0.98409 0)
(9.51652 -0.927507 0)
(9.48235 -0.870492 0)
(9.44557 -0.813585 0)
(9.40664 -0.75729 0)
(9.36604 -0.70207 0)
(9.32419 -0.648346 0)
(9.28146 -0.596491 0)
(9.2382 -0.546832 0)
(9.19471 -0.499652 0)
(9.15125 -0.455186 0)
(9.10804 -0.413633 0)
(9.06526 -0.375152 0)
(9.02304 -0.339868 0)
(8.98149 -0.307876 0)
(8.94069 -0.279247 0)
(8.90068 -0.254029 0)
(8.86151 -0.232253 0)
(8.82305 -0.213923 0)
(8.78567 -0.199091 0)
(8.74772 -0.187539 0)
(8.71595 -0.180181 0)
(8.66436 -0.172648 0)
(5.29433 -0.592382 0)
(5.5527 -0.640761 0)
(5.8619 -0.637733 0)
(6.22887 -0.641011 0)
(6.57923 -0.652327 0)
(6.89332 -0.670661 0)
(7.17987 -0.695353 0)
(7.44481 -0.724285 0)
(7.68969 -0.755431 0)
(7.91602 -0.787739 0)
(8.12596 -0.820798 0)
(8.32144 -0.854437 0)
(8.50388 -0.888583 0)
(8.67443 -0.923219 0)
(8.83407 -0.95835 0)
(8.98362 -0.993968 0)
(9.12373 -1.03003 0)
(9.25491 -1.06647 0)
(9.37757 -1.10315 0)
(9.49203 -1.13992 0)
(9.59851 -1.17654 0)
(9.69718 -1.21274 0)
(9.78815 -1.24818 0)
(9.87148 -1.2825 0)
(9.94717 -1.31527 0)
(10.0152 -1.34604 0)
(10.0755 -1.37435 0)
(10.1281 -1.3997 0)
(10.1728 -1.42163 0)
(10.2096 -1.43966 0)
(10.2385 -1.45335 0)
(10.2593 -1.46231 0)
(10.2721 -1.4662 0)
(10.2768 -1.46473 0)
(10.2736 -1.45772 0)
(10.2626 -1.44505 0)
(10.2439 -1.42671 0)
(10.2177 -1.40278 0)
(10.1844 -1.37343 0)
(10.1444 -1.33892 0)
(10.0982 -1.29962 0)
(10.0462 -1.25593 0)
(9.98902 -1.20836 0)
(9.92731 -1.15744 0)
(9.86171 -1.10373 0)
(9.7929 -1.04785 0)
(9.72154 -0.99038 0)
(9.64831 -0.931918 0)
(9.57384 -0.873037 0)
(9.49874 -0.814281 0)
(9.42357 -0.756159 0)
(9.34883 -0.699134 0)
(9.27498 -0.643627 0)
(9.20239 -0.590007 0)
(9.13139 -0.538596 0)
(9.06225 -0.489671 0)
(8.99514 -0.443461 0)
(8.93022 -0.400153 0)
(8.86757 -0.359899 0)
(8.80723 -0.322813 0)
(8.74919 -0.288981 0)
(8.69341 -0.258462 0)
(8.63981 -0.231294 0)
(8.58827 -0.207493 0)
(8.53868 -0.187062 0)
(8.49077 -0.169987 0)
(8.44482 -0.156252 0)
(8.39878 -0.145754 0)
(8.36037 -0.138807 0)
(8.29906 -0.133173 0)
(10.3608 -0.344285 0)
(10.2336 -0.524292 0)
(10.15 -0.627915 0)
(10.1333 -0.69834 0)
(10.1535 -0.751909 0)
(10.1895 -0.793254 0)
(10.2358 -0.827059 0)
(10.2898 -0.857168 0)
(10.3478 -0.885492 0)
(10.4069 -0.9129 0)
(10.4654 -0.939983 0)
(10.5226 -0.967194 0)
(10.5779 -0.99482 0)
(10.6306 -1.02301 0)
(10.6806 -1.05183 0)
(10.7274 -1.08129 0)
(10.7709 -1.11134 0)
(10.8108 -1.14186 0)
(10.8469 -1.1727 0)
(10.8789 -1.20365 0)
(10.9065 -1.23444 0)
(10.9294 -1.26475 0)
(10.9473 -1.2942 0)
(10.9598 -1.32239 0)
(10.9665 -1.34887 0)
(10.9672 -1.37317 0)
(10.9613 -1.39479 0)
(10.9486 -1.41325 0)
(10.9287 -1.42808 0)
(10.9014 -1.43881 0)
(10.8664 -1.44505 0)
(10.8236 -1.44641 0)
(10.7728 -1.44263 0)
(10.7141 -1.43348 0)
(10.6477 -1.41886 0)
(10.5737 -1.39872 0)
(10.4925 -1.37315 0)
(10.4045 -1.34232 0)
(10.3104 -1.3065 0)
(10.2107 -1.26605 0)
(10.1063 -1.22138 0)
(9.99787 -1.173 0)
(9.88631 -1.12144 0)
(9.77247 -1.06728 0)
(9.65724 -1.01111 0)
(9.54146 -0.953514 0)
(9.42596 -0.895086 0)
(9.31151 -0.836378 0)
(9.1988 -0.777917 0)
(9.08845 -0.720188 0)
(8.98101 -0.663633 0)
(8.87693 -0.608644 0)
(8.77658 -0.555563 0)
(8.68021 -0.504685 0)
(8.58804 -0.456258 0)
(8.50017 -0.410485 0)
(8.41663 -0.36753 0)
(8.33741 -0.327518 0)
(8.26242 -0.290544 0)
(8.19152 -0.256675 0)
(8.12454 -0.225953 0)
(8.06125 -0.198401 0)
(8.00142 -0.174024 0)
(7.94477 -0.152813 0)
(7.89104 -0.134745 0)
(7.83982 -0.119793 0)
(7.79124 -0.107886 0)
(7.74317 -0.0990428 0)
(7.70313 -0.0929685 0)
(7.64043 -0.0897988 0)
(12.1074 -0.307422 0)
(12.0549 -0.46097 0)
(11.9888 -0.563957 0)
(11.934 -0.64035 0)
(11.8905 -0.703058 0)
(11.8532 -0.755109 0)
(11.8215 -0.798965 0)
(11.7959 -0.837524 0)
(11.7756 -0.872716 0)
(11.7592 -0.905573 0)
(11.7457 -0.936819 0)
(11.7342 -0.967053 0)
(11.724 -0.996718 0)
(11.7145 -1.0261 0)
(11.7048 -1.05535 0)
(11.6943 -1.08455 0)
(11.6824 -1.1137 0)
(11.6684 -1.14274 0)
(11.6515 -1.1715 0)
(11.6312 -1.19979 0)
(11.6068 -1.22733 0)
(11.5775 -1.25379 0)
(11.5428 -1.2788 0)
(11.5019 -1.30196 0)
(11.4544 -1.32283 0)
(11.3996 -1.34096 0)
(11.337 -1.3559 0)
(11.2663 -1.36722 0)
(11.1871 -1.3745 0)
(11.0992 -1.37737 0)
(11.0025 -1.37552 0)
(10.8972 -1.3687 0)
(10.7833 -1.35676 0)
(10.6612 -1.3396 0)
(10.5314 -1.31726 0)
(10.3946 -1.28985 0)
(10.2516 -1.25756 0)
(10.1031 -1.2207 0)
(9.95019 -1.17964 0)
(9.7939 -1.13482 0)
(9.63532 -1.08673 0)
(9.47555 -1.03591 0)
(9.31569 -0.982915 0)
(9.15681 -0.928308 0)
(8.9999 -0.872648 0)
(8.84591 -0.816477 0)
(8.69569 -0.760305 0)
(8.54996 -0.704607 0)
(8.40935 -0.649814 0)
(8.27439 -0.596312 0)
(8.14546 -0.544437 0)
(8.02286 -0.494479 0)
(7.90675 -0.446679 0)
(7.79723 -0.401236 0)
(7.69427 -0.35831 0)
(7.59779 -0.318024 0)
(7.50762 -0.280469 0)
(7.42354 -0.245709 0)
(7.34527 -0.213785 0)
(7.27249 -0.184719 0)
(7.20485 -0.158517 0)
(7.14198 -0.13517 0)
(7.08347 -0.114662 0)
(7.02892 -0.0969661 0)
(6.97793 -0.0820453 0)
(6.92999 -0.0698691 0)
(6.88506 -0.0603366 0)
(6.8412 -0.0535679 0)
(6.80472 -0.048803 0)
(6.74885 -0.0483134 0)
(12.1607 -0.330696 0)
(12.2063 -0.446804 0)
(12.2223 -0.53784 0)
(12.2267 -0.610938 0)
(12.2265 -0.672994 0)
(12.2221 -0.726334 0)
(12.2142 -0.772356 0)
(12.2044 -0.812959 0)
(12.1932 -0.849794 0)
(12.1805 -0.883918 0)
(12.1658 -0.916024 0)
(12.1488 -0.946634 0)
(12.129 -0.976123 0)
(12.1058 -1.00473 0)
(12.0787 -1.03257 0)
(12.0471 -1.05968 0)
(12.0101 -1.08605 0)
(11.9671 -1.11156 0)
(11.9175 -1.13605 0)
(11.8606 -1.15932 0)
(11.7958 -1.18108 0)
(11.7224 -1.20103 0)
(11.64 -1.21884 0)
(11.5481 -1.23415 0)
(11.4463 -1.2466 0)
(11.3344 -1.25584 0)
(11.2123 -1.2615 0)
(11.0799 -1.26329 0)
(10.9374 -1.26093 0)
(10.7852 -1.2542 0)
(10.6236 -1.24294 0)
(10.4532 -1.22708 0)
(10.275 -1.20661 0)
(10.0897 -1.18162 0)
(9.8984 -1.15228 0)
(9.7023 -1.11883 0)
(9.5026 -1.08158 0)
(9.30059 -1.04091 0)
(9.0976 -0.997269 0)
(8.89493 -0.951111 0)
(8.69388 -0.902933 0)
(8.49567 -0.85324 0)
(8.30144 -0.802531 0)
(8.11224 -0.751293 0)
(7.929 -0.699986 0)
(7.7525 -0.649036 0)
(7.58343 -0.598833 0)
(7.42228 -0.549721 0)
(7.26947 -0.502001 0)
(7.12524 -0.455929 0)
(6.98972 -0.411718 0)
(6.86295 -0.369543 0)
(6.74484 -0.32954 0)
(6.63522 -0.291811 0)
(6.53383 -0.256434 0)
(6.44038 -0.223459 0)
(6.3545 -0.192916 0)
(6.27576 -0.164821 0)
(6.20373 -0.139173 0)
(6.13794 -0.115964 0)
(6.0779 -0.0951752 0)
(6.02311 -0.0767844 0)
(5.97306 -0.0607632 0)
(5.92726 -0.0470821 0)
(5.88521 -0.035704 0)
(5.84636 -0.0266048 0)
(5.8105 -0.0196877 0)
(5.77609 -0.0151279 0)
(5.74757 -0.0119744 0)
(5.70501 -0.013916 0)
(11.9893 -0.425858 0)
(12.0777 -0.511915 0)
(12.1393 -0.584788 0)
(12.1843 -0.645374 0)
(12.2184 -0.697316 0)
(12.243 -0.742673 0)
(12.2585 -0.782441 0)
(12.2657 -0.817707 0)
(12.2651 -0.849547 0)
(12.2565 -0.878718 0)
(12.2395 -0.905684 0)
(12.2137 -0.930767 0)
(12.1788 -0.954208 0)
(12.1342 -0.976169 0)
(12.0795 -0.996742 0)
(12.0142 -1.01595 0)
(11.9381 -1.03378 0)
(11.8508 -1.05014 0)
(11.752 -1.06491 0)
(11.6414 -1.07791 0)
(11.519 -1.08896 0)
(11.3846 -1.09783 0)
(11.2385 -1.10428 0)
(11.0806 -1.10807 0)
(10.9113 -1.10897 0)
(10.731 -1.10674 0)
(10.5402 -1.10121 0)
(10.3395 -1.09221 0)
(10.1299 -1.07962 0)
(9.9122 -1.06339 0)
(9.68752 -1.04352 0)
(9.45704 -1.02006 0)
(9.22204 -0.993167 0)
(8.98388 -0.963013 0)
(8.74396 -0.929857 0)
(8.50372 -0.894002 0)
(8.26459 -0.855793 0)
(8.02795 -0.815611 0)
(7.79516 -0.773854 0)
(7.56746 -0.730932 0)
(7.34601 -0.687253 0)
(7.13182 -0.643212 0)
(6.92579 -0.599184 0)
(6.72867 -0.555517 0)
(6.54104 -0.512523 0)
(6.36337 -0.470481 0)
(6.19595 -0.42963 0)
(6.03896 -0.390172 0)
(5.89245 -0.352273 0)
(5.75634 -0.316063 0)
(5.63047 -0.281644 0)
(5.51459 -0.249089 0)
(5.40835 -0.218449 0)
(5.31137 -0.189754 0)
(5.22321 -0.16302 0)
(5.14339 -0.13825 0)
(5.07139 -0.115436 0)
(5.00669 -0.0945647 0)
(4.94875 -0.0756175 0)
(4.897 -0.0585719 0)
(4.85091 -0.0434045 0)
(4.80991 -0.0300899 0)
(4.77346 -0.0186017 0)
(4.74102 -0.00891559 0)
(4.71206 -0.00100912 0)
(4.68606 0.00512282 0)
(4.66268 0.00954239 0)
(4.64084 0.0120672 0)
(4.623 0.0135304 0)
(4.59708 0.00986341 0)
(11.9868 -0.54044 0)
(12.0872 -0.599221 0)
(12.1596 -0.651437 0)
(12.2091 -0.69613 0)
(12.2395 -0.734537 0)
(12.2523 -0.767699 0)
(12.2481 -0.796098 0)
(12.2276 -0.820238 0)
(12.1915 -0.840757 0)
(12.1401 -0.858223 0)
(12.0736 -0.873066 0)
(11.9923 -0.885622 0)
(11.8963 -0.896179 0)
(11.7861 -0.90497 0)
(11.6618 -0.912162 0)
(11.5238 -0.917858 0)
(11.3724 -0.922107 0)
(11.2082 -0.924905 0)
(11.0314 -0.926207 0)
(10.8427 -0.925932 0)
(10.6425 -0.923975 0)
(10.4316 -0.920215 0)
(10.2106 -0.91452 0)
(9.98028 -0.906763 0)
(9.74153 -0.896824 0)
(9.49529 -0.884603 0)
(9.24261 -0.870024 0)
(8.98462 -0.853044 0)
(8.72252 -0.83366 0)
(8.45757 -0.811912 0)
(8.19111 -0.787884 0)
(7.92447 -0.761705 0)
(7.65903 -0.733546 0)
(7.39615 -0.703618 0)
(7.13713 -0.672164 0)
(6.88326 -0.63945 0)
(6.63571 -0.605761 0)
(6.39558 -0.571387 0)
(6.16383 -0.536619 0)
(5.94132 -0.50174 0)
(5.72875 -0.467017 0)
(5.52669 -0.432698 0)
(5.33558 -0.399003 0)
(5.15569 -0.366129 0)
(4.98719 -0.334239 0)
(4.83012 -0.303472 0)
(4.68439 -0.273936 0)
(4.54983 -0.245718 0)
(4.42619 -0.218876 0)
(4.31312 -0.193452 0)
(4.21023 -0.169471 0)
(4.11707 -0.146944 0)
(4.03318 -0.125871 0)
(3.95802 -0.106242 0)
(3.89109 -0.0880457 0)
(3.83183 -0.0712631 0)
(3.77969 -0.0558747 0)
(3.73413 -0.0418602 0)
(3.69459 -0.0291988 0)
(3.66052 -0.0178702 0)
(3.6314 -0.00785443 0)
(3.60668 0.000863062 0)
(3.58585 0.00829431 0)
(3.56842 0.014449 0)
(3.55391 0.0193339 0)
(3.54181 0.0229382 0)
(3.53176 0.0252812 0)
(3.52299 0.0262034 0)
(3.51641 0.0262008 0)
(3.50671 0.0218816 0)
(12.0815 -0.65688 0)
(12.1266 -0.683216 0)
(12.1344 -0.706292 0)
(12.1096 -0.7249 0)
(12.0568 -0.739165 0)
(11.9791 -0.749558 0)
(11.8789 -0.756423 0)
(11.7583 -0.760129 0)
(11.6194 -0.761159 0)
(11.4637 -0.760013 0)
(11.2927 -0.757114 0)
(11.1077 -0.752806 0)
(10.91 -0.747371 0)
(10.7007 -0.741029 0)
(10.4807 -0.733938 0)
(10.2511 -0.726194 0)
(10.0128 -0.717841 0)
(9.76655 -0.708879 0)
(9.51333 -0.699277 0)
(9.25395 -0.688977 0)
(8.98924 -0.677904 0)
(8.72006 -0.665976 0)
(8.44731 -0.65311 0)
(8.1719 -0.639226 0)
(7.89478 -0.624261 0)
(7.61694 -0.608164 0)
(7.3394 -0.590911 0)
(7.06319 -0.572502 0)
(6.78939 -0.552965 0)
(6.51905 -0.532357 0)
(6.25323 -0.510765 0)
(5.99296 -0.488299 0)
(5.73921 -0.465096 0)
(5.49291 -0.441305 0)
(5.25491 -0.417094 0)
(5.02596 -0.392632 0)
(4.80672 -0.368094 0)
(4.59772 -0.343646 0)
(4.39941 -0.319448 0)
(4.21208 -0.295648 0)
(4.03596 -0.272377 0)
(3.87111 -0.249748 0)
(3.71754 -0.227858 0)
(3.57513 -0.206783 0)
(3.4437 -0.186584 0)
(3.32298 -0.167304 0)
(3.21265 -0.148971 0)
(3.11234 -0.1316 0)
(3.02163 -0.115197 0)
(2.94008 -0.0997595 0)
(2.86721 -0.085277 0)
(2.80254 -0.071736 0)
(2.74559 -0.0591201 0)
(2.69586 -0.0474114 0)
(2.65284 -0.0365917 0)
(2.61606 -0.0266435 0)
(2.585 -0.0175505 0)
(2.55921 -0.00929735 0)
(2.53819 -0.00187214 0)
(2.52149 0.0047338 0)
(2.50866 0.0105288 0)
(2.49926 0.0155177 0)
(2.49285 0.0196999 0)
(2.48899 0.0230725 0)
(2.48726 0.0256325 0)
(2.48724 0.0273633 0)
(2.48857 0.0282533 0)
(2.49071 0.0281712 0)
(2.49367 0.0272616 0)
(2.49641 0.0235342 0)
(11.5768 -0.666455 0)
(11.4374 -0.64768 0)
(11.2671 -0.631768 0)
(11.072 -0.617057 0)
(10.8574 -0.602718 0)
(10.6274 -0.588442 0)
(10.385 -0.574071 0)
(10.1329 -0.559542 0)
(9.87316 -0.544924 0)
(9.60755 -0.53036 0)
(9.33754 -0.515987 0)
(9.06432 -0.501908 0)
(8.78889 -0.488189 0)
(8.5121 -0.47487 0)
(8.23467 -0.461958 0)
(7.95722 -0.449428 0)
(7.6803 -0.437231 0)
(7.40439 -0.425299 0)
(7.12998 -0.413551 0)
(6.85752 -0.401901 0)
(6.58748 -0.390261 0)
(6.32031 -0.378548 0)
(6.05653 -0.366685 0)
(5.79664 -0.354609 0)
(5.54119 -0.342269 0)
(5.29074 -0.329632 0)
(5.04584 -0.316681 0)
(4.80709 -0.303416 0)
(4.57506 -0.289859 0)