/*--------------------------------*- C++ -*----------------------------------*\
| =========                 |                                                 |
| \\      /  F ield         | OpenFOAM: The Open Source CFD Toolbox           |
|  \\    /   O peration     | Version:  2406                                  |
|   \\  /    A nd           | Website:  www.openfoam.com                      |
|    \\/     M anipulation  |                                                 |
\*---------------------------------------------------------------------------*/
FoamFile
{
    version     2.0;
    format      ascii;
    arch        "LSB;label=32;scalar=64";
    class       volScalarField;
    location    "804";
    object      p;
}
// * * * * * * * * * * * * * * * * * * * * * * * * * * * * * * * * * * * * * //

dimensions      [0 2 -2 0 0 0 0];

internalField   nonuniform List<scalar> 
150000
(
239.145
132.005
75.0153
51.7278
38.3735
29.5608
23.793
19.8195
16.8714
14.5637
12.6884
11.119
9.77503
8.60323
7.56672
6.63889
5.79993
5.03474
4.33149
3.68081
3.07514
2.5083
1.97519
1.47154
0.993759
0.538808
0.10408
-0.312665
-0.713369
-1.09972
-1.4732
-1.83511
-2.1866
-2.52869
-2.86229
-3.1882
-3.50717
-3.81984
-4.1268
-4.4286
-4.72573
-5.01862
-5.30769
-5.59331
-5.87583
-6.15555
-6.43278
-6.70779
-6.98083
-7.25213
-7.52193
-7.79043
-8.05782
-8.3243
-8.59004
-8.85522
-9.11999
-9.38451
-9.64894
-9.91343
-10.1781
-10.4431
-10.7086
-10.9748
-11.2416
-11.5094
-11.7783
-12.0483
-12.3196
-12.5924
-12.8669
-13.1431
-13.4213
-13.7016
-13.9843
-14.2694
-14.5573
-14.8481
-15.1421
-15.4396
-15.7407
-16.046
-16.3555
-16.6699
-16.9894
-17.3146
-17.6459
-17.9839
-18.3294
-18.6829
-19.0453
-19.4176
-19.801
-20.1978
-20.6127
-21.0578
-21.5584
-22.1387
-22.8696
-24.6806
138.311
98.6842
69.0903
52.5096
41.0931
32.6453
26.6055
22.2172
18.8803
16.2474
14.1105
12.3329
10.8224
9.51619
8.36985
7.3512
6.43627
5.60682
4.84871
4.15078
3.50408
2.90136
2.33667
1.80505
1.30239
0.825171
0.370437
-0.0643627
-0.481422
-0.882644
-1.26969
-1.64401
-2.00689
-2.35947
-2.70274
-3.0376
-3.36486
-3.68524
-3.99939
-4.30789
-4.61128
-4.91004
-5.20462
-5.49541
-5.7828
-6.06712
-6.3487
-6.62782
-6.90475
-7.17976
-7.45308
-7.72492
-7.99552
-8.26505
-8.53372
-8.8017
-9.06917
-9.33628
-9.60322
-9.87012
-10.1371
-10.4044
-10.6721
-10.9404
-11.2094
-11.4792
-11.7501
-12.0221
-12.2954
-12.5702
-12.8465
-13.1247
-13.4049
-13.6872
-13.9718
-14.259
-14.5489
-14.8419
-15.1381
-15.4378
-15.7414
-16.0492
-16.3615
-16.6789
-17.0016
-17.3304
-17.6658
-18.0086
-18.3595
-18.7198
-19.0906
-19.4738
-19.8717
-20.2879
-20.7287
-21.2048
-21.7333
-22.3397
-23.1246
-24.4402
89.7853
78.5528
63.9045
51.7621
42.1496
34.5232
28.6474
24.1334
20.5914
17.7491
15.4225
13.4814
11.8327
10.4102
9.16579
8.06407
7.07829
6.188
5.37726
4.6335
3.94664
3.30853
2.71247
2.15292
1.62524
1.12555
0.650537
0.197363
-0.2364
-0.652859
-1.05384
-1.44096
-1.81561
-2.17904
-2.53235
-2.87652
-3.21242
-3.54085
-3.8625
-4.17802
-4.48797
-4.79289
-5.09325
-5.3895
-5.68202
-5.97119
-6.25734
-6.5408
-6.82185
-7.10076
-7.3778
-7.65319
-7.92716
-8.19993
-8.47169
-8.74264
-9.01295
-9.28281
-9.55237
-9.82182
-10.0913
-10.361
-10.631
-10.9015
-11.1727
-11.4447
-11.7177
-11.9917
-12.2671
-12.5439
-12.8222
-13.1024
-13.3845
-13.6688
-13.9555
-14.2447
-14.5367
-14.8317
-15.1301
-15.4321
-15.738
-16.0483
-16.3632
-16.6833
-17.0091
-17.3412
-17.6803
-18.0273
-18.3831
-18.7491
-19.127
-19.5188
-19.9275
-20.3573
-20.814
-21.3058
-21.8425
-22.434
-23.0997
-23.868
69.1509
65.5062
57.2834
48.5166
40.9362
34.5664
29.3164
25.0524
21.5797
18.721
16.3388
14.3276
12.6069
11.1159
9.80882
8.6507
7.6146
6.67955
5.82901
5.04981
4.33132
3.66489
3.04339
2.46092
1.91254
1.39406
0.901956
0.433194
-0.0148302
-0.44437
-0.857386
-1.25559
-1.64049
-2.01341
-2.37553
-2.72789
-3.07143
-3.40698
-3.7353
-4.05705
-4.37287
-4.68329
-4.98883
-5.28996
-5.58709
-5.88061
-6.17089
-6.45826
-6.74302
-7.02546
-7.30586
-7.58445
-7.86147
-8.13715
-8.4117
-8.68532
-8.95819
-9.23051
-9.50245
-9.77418
-10.0459
-10.3177
-10.5898
-10.8623
-11.1354
-11.4093
-11.6841
-11.9599
-12.237
-12.5155
-12.7956
-13.0775
-13.3613
-13.6472
-13.9355
-14.2263
-14.52
-14.8167
-15.1167
-15.4204
-15.7281
-16.0401
-16.3568
-16.6788
-17.0066
-17.3407
-17.682
-18.0313
-18.3896
-18.7582
-19.1388
-19.5332
-19.9439
-20.3738
-20.8263
-21.3044
-21.8089
-22.3336
-22.8594
-23.3436
56.4982
55.1687
50.5064
44.5481
38.854
33.7293
29.2317
25.381
22.1193
19.355
17.0004
14.9805
13.2327
11.7063
10.3609
9.16474
8.09226
7.12319
6.24126
5.43327
4.68848
3.99804
3.35465
2.75219
2.18553
1.65032
1.14287
0.66
0.198988
-0.242535
-0.666629
-1.07509
-1.46952
-1.85129
-2.22165
-2.5817
-2.93243
-3.2747
-3.60932
-3.93699
-4.25837
-4.57403
-4.88451
-5.19029
-5.49182
-5.78951
-6.08374
-6.37485
-6.66316
-6.94898
-7.23259
-7.51424
-7.79418
-8.07265
-8.34986
-8.62603
-8.90134
-9.176
-9.45018
-9.72406
-9.99782
-10.2716
-10.5456
-10.82
-11.0949
-11.3705
-11.647
-11.9245
-12.2032
-12.4832
-12.7648
-13.0481
-13.3333
-13.6206
-13.9102
-14.2023
-14.4972
-14.7952
-15.0965
-15.4013
-15.7101
-16.0232
-16.341
-16.664
-16.9927
-17.3276
-17.6695
-18.0192
-18.3775
-18.7455
-19.1245
-19.5158
-19.9208
-20.3406
-20.7756
-21.2242
-21.6804
-22.1301
-22.5453
-22.8791
47.799
47.3502
44.682
40.6889
36.4742
32.419
28.6606
25.286
22.3149
19.7189
17.4541
15.4747
13.7375
12.2041
10.8421
9.62407
8.52751
7.53385
6.62776
5.79662
5.02994
4.319
3.6565
3.0363
2.45318
1.90272
1.38114
0.885169
0.412001
-0.0408118
-0.475403
-0.893642
-1.29717
-1.68745
-2.06576
-2.43325
-2.79095
-3.13976
-3.48053
-3.81398
-4.1408
-4.46159
-4.77692
-5.08728
-5.39314
-5.69493
-5.99304
-6.28783
-6.57965
-6.86879
-7.15556
-7.44022
-7.72303
-8.00423
-8.28405
-8.5627
-8.84039
-9.11732
-9.39368
-9.66964
-9.94539
-10.2211
-10.4969
-10.7731
-11.0496
-11.3269
-11.6049
-11.8838
-12.1639
-12.4453
-12.7282
-13.0127
-13.2991
-13.5875
-13.8781
-14.1712
-14.4671
-14.7658
-15.0678
-15.3733
-15.6827
-15.9962
-16.3142
-16.6372
-16.9656
-17.3
-17.6408
-17.9888
-18.3447
-18.709
-19.0826
-19.4659
-19.8592
-20.262
-20.6722
-21.085
-21.4911
-21.8741
-22.2075
-22.4537
41.6149
41.4867
39.8713
37.1395
34.0152
30.8332
27.7436
24.8512
22.2108
19.8334
17.7074
15.8113
14.1199
12.6079
11.2511
10.0283
8.92088
7.9128
6.99044
6.14227
5.35848
4.63079
3.95214
3.31652
2.7188
2.15457
1.62004
1.11193
0.627368
0.163882
-0.28071
-0.708321
-1.12064
-1.51916
-1.90522
-2.27998
-2.64452
-2.99977
-3.3466
-3.68577
-4.01799
-4.34388
-4.66402
-4.97894
-5.28912
-5.59499
-5.89698
-6.19545
-6.49076
-6.78322
-7.07314
-7.36079
-7.64646
-7.93037
-8.21277
-8.49388
-8.77392
-9.05308
-9.33155
-9.60954
-9.88721
-10.1648
-10.4423
-10.7201
-10.9983
-11.277
-11.5564
-11.8367
-12.118
-12.4006
-12.6845
-12.97
-13.2573
-13.5465
-13.8379
-14.1316
-14.428
-14.7271
-15.0293
-15.3349
-15.6441
-15.9572
-16.2746
-16.5965
-16.9235
-17.2559
-17.594
-17.9384
-18.2894
-18.6472
-19.0121
-19.3837
-19.7613
-20.1429
-20.5249
-20.901
-21.2608
-21.5887
-21.8628
-22.0559
36.9676
36.9384
35.89
33.9672
31.631
29.1362
26.616
24.1702
21.8644
19.7293
17.7735
15.9931
14.3776
12.9125
11.5826
10.3726
9.26834
8.25705
7.32732
6.46914
5.6738
4.93374
4.2424
3.59412
2.98398
2.40771
1.86161
1.34243
0.847337
0.373856
-0.0802051
-0.516775
-0.937563
-1.34409
-1.7377
-2.1196
-2.49089
-2.85252
-3.20538
-3.55025
-3.88786
-4.21886
-4.54384
-4.86334
-5.17786
-5.48786
-5.79376
-6.09595
-6.39477
-6.69058
-6.98368
-7.27435
-7.56288
-7.84952
-8.13451
-8.41808
-8.70044
-8.98181
-9.26239
-9.54236
-9.82191
-10.1012
-10.3805
-10.6598
-10.9395
-11.2195
-11.5002
-11.7817
-12.0641
-12.3476
-12.6325
-12.9187
-13.2067
-13.4964
-13.7882
-14.0822
-14.3786
-14.6776
-14.9795
-15.2845
-15.5929
-15.9048
-16.2206
-16.5406
-16.865
-17.194
-17.5279
-17.8668
-18.2109
-18.56
-18.9137
-19.271
-19.6304
-19.989
-20.3425
-20.6838
-21.0032
-21.2872
-21.5185
-21.6786
33.3025
33.2987
32.5755
31.181
29.4085
27.4409
25.3863
23.331
21.3384
19.4466
17.6747
16.0299
14.5117
13.1147
11.8306
10.65
9.56303
8.56031
7.6329
6.77265
5.9722
5.225
4.5252
3.86766
3.24785
2.66175
2.10584
1.57702
1.07254
0.589964
0.127149
-0.317817
-0.746635
-1.16082
-1.56174
-1.9506
-2.3285
-2.69642
-3.05525
-3.4058
-3.74881
-4.08493
-4.41477
-4.7389
-5.05781
-5.37198
-5.68184
-5.98779
-6.29019
-6.58939
-6.88572
-7.17945
-7.47089
-7.76028
-8.04788
-8.33392
-8.61863
-8.90221
-9.18487
-9.4668
-9.7482
-10.0292
-10.3101
-10.591
-10.872
-11.1533
-11.4352
-11.7177
-12.001
-12.2853
-12.5708
-12.8576
-13.1459
-13.4359
-13.7277
-14.0216
-14.3177
-14.6161
-14.9172
-15.2211
-15.5279
-15.8379
-16.1514
-16.4683
-16.789
-17.1135
-17.4418
-17.7738
-18.1094
-18.4481
-18.7889
-19.1306
-19.4708
-19.8063
-20.1325
-20.4426
-20.7279
-20.9773
-21.1778
-21.3167
30.3146
30.3149
29.7901
28.748
27.3791
25.8118
24.1298
22.4041
20.691
19.0283
17.4397
15.9384
14.5301
13.2157
11.9922
10.8551
9.79823
8.81538
7.90008
7.04611
6.24763
5.49921
4.79589
4.13321
3.50711
2.91398
2.35058
1.81401
1.30168
0.811281
0.340743
-0.111786
-0.547963
-0.96928
-1.37708
-1.77256
-2.15681
-2.53083
-2.89549
-3.25162
-3.59996
-3.94117
-4.27586
-4.60462
-4.92794
-5.24631
-5.56017
-5.86992
-6.17595
-6.47859
-6.77818
-7.07502
-7.36939
-7.66157
-7.95181
-8.24035
-8.52741
-8.8132
-9.09794
-9.38183
-9.66504
-9.94777
-10.2302
-10.5125
-10.7948
-11.0773
-11.3602
-11.6436
-11.9277
-12.2127
-12.4986
-12.7857
-13.0742
-13.3641
-13.6556
-13.949
-14.2443
-14.5417
-14.8415
-15.1436
-15.4483
-15.7558
-16.066
-16.3791
-16.6952
-17.0141
-17.3357
-17.6597
-17.9857
-18.3129
-18.64
-18.9654
-19.2865
-19.6
-19.9012
-20.1841
-20.4412
-20.6635
-20.8417
-20.9668
27.8197
27.8187
27.4219
26.6212
25.5443
24.2812
22.8949
21.4422
19.9706
18.5152
17.1
15.7408
14.4469
13.2228
12.0698
10.9865
9.9701
9.01689
8.12267
7.28303
6.49359
5.75013
5.04864
4.38538
3.75691
3.16008
2.59199
2.05005
1.53187
1.03533
0.558468
0.0995498
-0.343012
-0.770648
-1.18466
-1.58621
-1.97638
-2.35613
-2.72634
-3.08782
-3.4413
-3.78746
-4.12691
-4.46022
-4.7879
-5.11044
-5.42829
-5.74184
-6.05149
-6.35758
-6.66045
-6.96041
-7.25775
-7.55273
-7.84562
-8.13666
-8.42607
-8.71408
-9.00089
-9.2867
-9.5717
-9.85607
-10.14
-10.4237
-10.7072
-10.9908
-11.2746
-11.5588
-11.8435
-12.1289
-12.4151
-12.7023
-12.9906
-13.2802
-13.5711
-13.8636
-14.1578
-14.4538
-14.7517
-15.0517
-15.3537
-15.6579
-15.9643
-16.2729
-16.5835
-16.8961
-17.2102
-17.5255
-17.8412
-18.1563
-18.4695
-18.7788
-19.0816
-19.3747
-19.6536
-19.9132
-20.1471
-20.3484
-20.5102
-20.6262
25.6978
25.6949
25.385
24.7546
23.8924
22.8618
21.7097
20.4811
19.2149
17.9421
16.6853
15.4607
14.2795
13.1482
12.0705
11.0475
10.0789
9.16282
8.29704
7.47872
6.7048
5.97219
5.2778
4.61867
3.99197
3.39505
2.82544
2.28086
1.7592
1.25855
0.777126
0.313323
-0.134336
-0.567194
-0.98648
-1.39331
-1.78872
-2.17364
-2.54892
-2.91535
-3.27366
-3.62449
-3.96847
-4.30614
-4.63804
-4.96463
-5.28636
-5.60364
-5.91685
-6.22635
-6.53247
-6.83551
-7.13578
-7.43355
-7.72907
-8.02258
-8.31432
-8.60451
-8.89336
-9.18105
-9.46779
-9.75376
-10.0391
-10.3241
-10.6087
-10.8933
-11.1779
-11.4628
-11.7479
-12.0336
-12.3199
-12.6069
-12.8949
-13.1838
-13.4739
-13.7653
-14.058
-14.3521
-14.6478
-14.9451
-15.2439
-15.5444
-15.8464
-16.1498
-16.4545
-16.7602
-17.0663
-17.3724
-17.6775
-17.9805
-18.28
-18.5738
-18.8596
-19.1341
-19.3936
-19.6334
-19.8486
-20.0336
-20.1832
-20.2933
23.8671
23.863
23.6147
23.1078
22.4061
21.555
20.5892
19.5438
18.4508
17.3363
16.2211
15.1206
14.0463
13.0059
12.0046
11.045
10.1283
9.25451
8.42262
7.63112
6.87811
6.16148
5.479
4.82841
4.2075
3.61414
3.04626
2.50196
1.97941
1.47693
0.992949
0.526027
0.0748191
-0.361908
-0.785292
-1.19638
-1.59614
-1.98545
-2.36513
-2.73593
-3.09856
-3.45364
-3.80177
-4.1435
-4.47933
-4.80974
-5.13516
-5.45599
-5.77262
-6.0854
-6.39465
-6.7007
-7.00382
-7.30429
-7.60236
-7.89829
-8.1923
-8.48461
-8.77542
-9.06493
-9.35334
-9.64082
-9.92754
-10.2137
-10.4994
-10.7848
-11.0701
-11.3554
-11.6409
-11.9267
-12.2128
-12.4995
-12.7869
-13.075
-13.364
-13.6539
-13.9448
-14.2368
-14.5298
-14.824
-15.1193
-15.4157
-15.7129
-16.0108
-16.3091
-16.6075
-16.9054
-17.2021
-17.4966
-17.7878
-18.0741
-18.3535
-18.6237
-18.8817
-19.1244
-19.3477
-19.5476
-19.7199
-19.8607
-19.9669
22.2696
22.2648
22.0618
21.6468
21.0673
20.3562
19.5394
18.6442
17.6964
16.7183
15.7278
14.7395
13.7643
12.8105
11.8837
10.9877
10.1249
9.29608
8.50155
7.74077
7.01275
6.3162
5.64963
5.01144
4.39995
3.81352
3.25051
2.70933
2.18849
1.68655
1.20214
0.734012
0.280967
-0.1581
-0.584219
-0.998348
-1.40138
-1.79412
-2.17736
-2.55179
-2.91808
-3.27682
-3.6286
-3.97393
-4.3133
-4.64718
-4.97597
-5.30009
-5.6199
-5.93574
-6.24794
-6.55681
-6.86262
-7.16566
-7.46617
-7.76439
-8.06055
-8.35487
-8.64754
-8.93877
-9.22874
-9.51762
-9.80559
-10.0928
-10.3794
-10.6656
-10.9514
-11.2371
-11.5227
-11.8084
-12.0943
-12.3804
-12.667
-12.954
-13.2416
-13.5298
-13.8186
-14.1082
-14.3984
-14.6892
-14.9806
-15.2725
-15.5646
-15.8567
-16.1485
-16.4395
-16.7291
-17.0165
-17.3007
-17.5805
-17.8544
-18.1205
-18.3767
-18.6203
-18.8485
-19.058
-19.2457
-19.4081
-19.5424
-19.6464
20.8624
20.8574
20.6886
20.3437
19.8587
19.2581
18.5613
17.7895
16.9637
16.1024
15.2212
14.333
13.4483
12.5751
11.7193
10.8853
10.0761
9.29329
8.53794
7.81025
7.10998
6.43651
5.78894
5.16624
4.56721
3.99065
3.43528
2.89987
2.38319
1.88406
1.40133
0.933914
0.480794
0.0409938
-0.386401
-0.802248
-1.20735
-1.60246
-1.98827
-2.36545
-2.73461
-3.09631
-3.4511
-3.79945
-4.14186
-4.47874
-4.8105
-5.13752
-5.46017
-5.77878
-6.09365
-6.40509
-6.71338
-7.01877
-7.32151
-7.62185
-7.92
-8.21616
-8.51055
-8.80334
-9.09473
-9.38487
-9.67394
-9.96209
-10.2495
-10.5362
-10.8224
-11.1083
-11.3939
-11.6793
-11.9647
-12.2502
-12.5357
-12.8215
-13.1075
-13.3937
-13.6803
-13.9671
-14.2542
-14.5415
-14.8288
-15.116
-15.4028
-15.6891
-15.9742
-16.2578
-16.5392
-16.8176
-17.0919
-17.361
-17.6235
-17.8775
-18.1212
-18.3522
-18.5681
-18.7663
-18.944
-19.0988
-19.2284
-19.3312
19.6132
19.6082
19.4661
19.1754
18.7647
18.2524
17.653
16.9832
16.26
15.4986
14.7126
13.9133
13.1103
12.3111
11.5219
10.747
9.98986
9.25268
8.53696
7.84349
7.17258
6.52412
5.89774
5.29283
4.70864
4.14431
3.59893
3.07154
2.5612
2.06694
1.58783
1.12296
0.671469
0.232517
-0.194688
-0.610902
-1.01683
-1.41316
-1.80051
-2.17948
-2.55063
-2.91449
-3.27155
-3.62228
-3.9671
-4.30643
-4.64066
-4.97014
-5.29521
-5.61619
-5.93339
-6.24708
-6.55753
-6.86501
-7.16974
-7.47195
-7.77186
-8.06967
-8.36557
-8.65974
-8.95236
-9.24359
-9.53359
-9.8225
-10.1105
-10.3976
-10.6841
-10.9699
-11.2553
-11.5404
-11.8251
-12.1096
-12.394
-12.6783
-12.9625
-13.2466
-13.5307
-13.8147
-14.0985
-14.382
-14.6651
-14.9475
-15.229
-15.5093
-15.7879
-16.0643
-16.3377
-16.6074
-16.8725
-17.1317
-17.3836
-17.6268
-17.8595
-18.0796
-18.2852
-18.4739
-18.6437
-18.7926
-18.9189
-19.0214
18.497
18.4922
18.371
18.1233
17.7718
17.3307
16.811
16.226
15.5893
14.9135
14.2103
13.4895
12.7597
12.0281
11.3004
10.5811
9.87373
9.18081
8.5042
7.84509
7.20419
6.58181
5.97797
5.39243
4.82478
4.27449
3.74092
3.22341
2.72121
2.23359
1.75981
1.29912
0.850819
0.414191
-0.0114354
-0.42671
-0.832254
-1.22866
-1.61648
-1.99626
-2.3685
-2.73367
-3.09223
-3.4446
-3.79118
-4.13235
-4.46847
-4.79988
-5.12689
-5.4498
-5.76891
-6.08447
-6.39674
-6.70597
-7.01238
-7.31618
-7.61758
-7.91677
-8.21395
-8.50927
-8.8029
-9.09501
-9.38573
-9.67521
-9.96358
-10.2509
-10.5374
-10.8232
-11.1082
-11.3926
-11.6765
-11.96
-12.243
-12.5256
-12.8079
-13.0897
-13.3712
-13.6521
-13.9325
-14.2121
-14.4909
-14.7686
-15.0448
-15.3192
-15.5914
-15.8607
-16.1266
-16.3882
-16.6445
-16.8946
-17.1371
-17.3707
-17.5937
-17.8045
-18.0013
-18.1823
-18.3457
-18.4901
-18.6141
-18.7169
17.494
17.4895
17.3851
17.1717
16.868
16.485
16.0312
15.517
14.9535
14.3512
13.72
13.0684
12.4041
11.7337
11.0625
10.3949
9.73442
9.08382
8.44512
7.8198
7.20887
6.61293
6.03231
5.46707
4.91708
4.38208
3.86169
3.35544
2.86282
2.38329
1.91626
1.46115
1.01739
0.584396
0.161603
-0.251536
-0.655553
-1.05096
-1.43824
-1.81787
-2.19029
-2.55593
-2.9152
-3.26847
-3.61612
-3.95849
-4.2959
-4.62867
-4.9571
-5.28146
-5.60202
-5.91902
-6.23272
-6.54332
-6.85106
-7.15612
-7.45871
-7.759
-8.05717
-8.35337
-8.64778
-8.94052
-9.23174
-9.52157
-9.81013
-10.0975
-10.3839
-10.6692
-10.9537
-11.2373
-11.5202
-11.8024
-12.0839
-12.3648
-12.6449
-12.9244
-13.203
-13.4809
-13.7578
-14.0335
-14.308
-14.5808
-14.8518
-15.1205
-15.3865
-15.6492
-15.9079
-16.1618
-16.4102
-16.652
-16.886
-17.111
-17.3256
-17.5284
-17.7178
-17.8925
-18.0509
-18.1919
-18.3144
-18.4179
16.5884
16.5843
16.4935
16.3081
16.0434
15.7082
15.3091
14.8544
14.3532
13.8142
13.2456
12.655
12.0491
11.4338
10.8142
10.1944
9.57779
8.96721
8.36481
7.77223
7.19068
6.62101
6.06376
5.51924
4.98754
4.46863
3.96232
3.46835
2.98639
2.51604
2.0569
1.60851
1.17041
0.742161
0.323285
-0.0866666
-0.48814
-0.881569
-1.26737
-1.64596
-2.01772
-2.38302
-2.74223
-3.09569
-3.44372
-3.78664
-4.12474
-4.45831
-4.78761
-5.11291
-5.43445
-5.75245
-6.06714
-6.37873
-6.68742
-6.99339
-7.29682
-7.59789
-7.89676
-8.19357
-8.48847
-8.7816
-9.07307
-9.36302
-9.65154
-9.93874
-10.2247
-10.5095
-10.7932
-11.0759
-11.3577
-11.6384
-11.9183
-12.1972
-12.4751
-12.752
-13.0279
-13.3025
-13.5759
-13.8478
-14.1179
-14.3861
-14.652
-14.9152
-15.1752
-15.4315
-15.6835
-15.9305
-16.1715
-16.4058
-16.6322
-16.8496
-17.057
-17.2529
-17.4362
-17.6056
-17.76
-17.8985
-18.0202
-18.1246
15.7675
15.7638
15.6842
15.5216
15.2891
14.9937
14.6405
14.2361
13.788
13.3035
12.7896
12.2527
11.6989
11.1333
10.5606
9.98462
9.40879
8.83579
8.26781
7.7066
7.1535
6.60954
6.07542
5.55164
5.03847
4.53605
4.04437
3.56334
3.09278
2.63243
2.18202
1.74122
1.3097
0.887087
0.473027
0.06715
-0.33091
-0.721513
-1.10501
-1.48176
-1.85208
-2.21631
-2.57475
-2.92771
-3.27548
-3.61833
-3.95654
-4.29034
-4.62
-4.94573
-5.26777
-5.58632
-5.90158
-6.21374
-6.523
-6.82951
-7.13345
-7.43497
-7.73422
-8.03134
-8.32646
-8.6197
-8.91117
-9.20099
-9.48925
-9.77604
-10.0614
-10.3455
-10.6283
-10.9099
-11.1902
-11.4694
-11.7475
-12.0243
-12.2999
-12.5743
-12.8472
-13.1187
-13.3885
-13.6565
-13.9224
-14.186
-14.447
-14.7049
-14.9593
-15.2097
-15.4554
-15.6959
-15.9302
-16.1577
-16.3774
-16.5882
-16.7892
-16.9793
-17.1575
-17.3227
-17.474
-17.6106
-17.7319
-17.8376
15.0208
15.0173
14.9471
14.8035
14.5978
14.3357
14.0211
13.6595
13.2571
12.8198
12.3536
11.8641
11.3565
10.8356
10.3054
9.76973
9.23158
8.69363
8.15806
7.62667
7.10087
6.58179
6.07028
5.56695
5.07224
4.58642
4.10964
3.64192
3.18322
2.73342
2.29234
1.85979
1.43551
1.01924
0.610714
0.209632
-0.184294
-0.571359
-0.951854
-1.32607
-1.69428
-2.05678
-2.41382
-2.76567
-3.11259
-3.45481
-3.79256
-4.12608
-4.45559
-4.78128
-5.10335
-5.42201
-5.73742
-6.04977
-6.35921
-6.66591
-6.97
-7.27165
-7.57097
-7.8681
-8.16315
-8.45623
-8.74745
-9.0369
-9.32467
-9.61082
-9.89544
-10.1786
-10.4602
-10.7405
-11.0194
-11.2969
-11.573
-11.8477
-12.1209
-12.3926
-12.6626
-12.9308
-13.1971
-13.4613
-13.7231
-13.9823
-14.2385
-14.4914
-14.7405
-14.9853
-15.2253
-15.4598
-15.6881
-15.9095
-16.1232
-16.3283
-16.5238
-16.7089
-16.8828
-17.0445
-17.1933
-17.3286
-17.4499
-17.557
14.3395
14.3364
14.2739
14.1462
13.963
13.729
13.4473
13.1223
12.759
12.3627
11.9383
11.4907
11.0244
10.5435
10.052
9.553
9.04957
8.54419
8.03899
7.53575
7.03595
6.54076
6.05112
5.56776
5.09121
4.62187
4.16
3.70573
3.25913
2.8202
2.38886
1.96499
1.54845
1.13905
0.736597
0.340872
-0.0483488
-0.431297
-0.808207
-1.17932
-1.54486
-1.90506
-2.26015
-2.61036
-2.95589
-3.29697
-3.63379
-3.96655
-4.29544
-4.62064
-4.94233
-5.26069
-5.57586
-5.888
-6.19727
-6.5038
-6.80773
-7.10918
-7.40827
-7.70512
-7.99983
-8.2925
-8.58321
-8.87206
-9.1591
-9.44442
-9.72806
-10.0101
-10.2905
-10.5693
-10.8465
-11.1222
-11.3963
-11.6687
-11.9395
-12.2084
-12.4755
-12.7405
-13.0033
-13.2638
-13.5216
-13.7765
-14.0282
-14.2764
-14.5205
-14.7601
-14.9948
-15.2238
-15.4467
-15.6627
-15.871
-16.071
-16.2618
-16.4427
-16.613
-16.7719
-16.9188
-17.0532
-17.1747
-17.2832
13.7164
13.7135
13.6576
13.5434
13.3792
13.1691
12.9154
12.6218
12.2925
11.9319
11.5442
11.1336
10.704
10.2592
9.80253
9.33708
8.86555
8.39033
7.91347
7.4367
6.96151
6.4891
6.02048
5.55644
5.0976
4.64444
4.19731
3.75646
3.32203
2.89411
2.47272
2.05782
1.64934
1.24717
0.851186
0.461238
0.0771613
-0.301219
-0.674085
-1.04162
-1.40402
-1.76147
-2.11415
-2.46225
-2.80596
-3.14545
-3.4809
-3.81248
-4.14035
-4.46467
-4.78559
-5.10327
-5.41784
-5.72944
-6.0382
-6.34424
-6.64769
-6.94865
-7.24723
-7.54352
-7.83763
-8.12963
-8.41961
-8.70763
-8.99375
-9.27803
-9.56051
-9.84122
-10.1202
-10.3974
-10.6729
-10.9467
-11.2186
-11.4887
-11.757
-12.0232
-12.2873
-12.5491
-12.8086
-13.0654
-13.3193
-13.5702
-13.8176
-14.0612
-14.3007
-14.5355
-14.7652
-14.9893
-15.2073
-15.4183
-15.622
-15.8175
-16.0043
-16.1816
-16.3488
-16.5054
-16.6508
-16.7847
-16.9066
-17.0166
13.1454
13.1427
13.0924
12.9896
12.8416
12.6518
12.4222
12.1558
11.856
11.5266
11.1712
10.7933
10.3965
9.98405
9.55897
9.12406
8.68181
8.23445
7.78394
7.33196
6.87996
6.42918
5.98063
5.53516
5.09345
4.65604
4.22337
3.79575
3.37342
2.95652
2.54515
2.13935
1.73912
1.34441
0.955167
0.571292
0.192679
-0.180796
-0.549264
-0.912868
-1.27175
-1.62607
-1.97596
-2.32159
-2.6631
-3.00063
-3.33435
-3.66438
-3.99088
-4.31397
-4.63378
-4.95045
-5.2641
-5.57484
-5.88279
-6.18806
-6.49074
-6.79095
-7.08875
-7.38425
-7.67752
-7.96863
-8.25766
-8.54464
-8.82965
-9.11271
-9.39386
-9.67313
-9.95052
-10.226
-10.4997
-10.7714
-11.0412
-11.3089
-11.5746
-11.838
-12.0992
-12.3579
-12.614
-12.8673
-13.1176
-13.3645
-13.6079
-13.8473
-14.0824
-14.3127
-14.538
-14.7576
-14.971
-15.1777
-15.3772
-15.5688
-15.752
-15.9263
-16.091
-16.2457
-16.39
-16.5235
-16.646
-16.7574
12.6211
12.6186
12.5731
12.4801
12.346
12.1738
11.965
11.7221
11.448
11.1459
10.8189
10.4702
10.1026
9.71924
9.32273
8.91561
8.50018
8.07851
7.65245
7.2236
6.7934
6.36304
5.93357
5.50585
5.08061
4.65845
4.23984
3.82517
3.41474
3.00875
2.60737
2.2107
1.81879
1.43167
1.04932
0.671715
0.298784
-0.069545
-0.433359
-0.792757
-1.14785
-1.49874
-1.84555
-2.18839
-2.52739
-2.86267
-3.19435
-3.52254
-3.84736
-4.16893
-4.48735
-4.80273
-5.11518
-5.42479
-5.73167
-6.0359
-6.33758
-6.63678
-6.93359
-7.22807
-7.52029
-7.81031
-8.09819
-8.38396
-8.66768
-8.94937
-9.22905
-9.50674
-9.78244
-10.0561
-10.3278
-10.5974
-10.865
-11.1303
-11.3934
-11.6541
-11.9124
-12.1681
-12.4209
-12.6708
-12.9175
-13.1607
-13.4002
-13.6356
-13.8667
-14.0929
-14.314
-14.5295
-14.7389
-14.9417
-15.1375
-15.3257
-15.5058
-15.6774
-15.84
-15.9931
-16.1366
-16.2699
-16.3931
-16.5059
12.1392
12.1369
12.0955
12.0109
11.8888
11.7317
11.541
11.3185
11.067
10.7889
10.4871
10.1642
9.82278
9.46554
9.09486
8.71303
8.32214
7.92412
7.52069
7.1134
6.70359
6.29247
5.88105
5.47023
5.06076
4.65326
4.24825
3.84617
3.44736
3.05209
2.66057
2.27296
1.88937
1.50987
1.13449
0.763251
0.396134
0.0331081
-0.325874
-0.680873
-1.03196
-1.37921
-1.7227
-2.06253
-2.39879
-2.73157
-3.06097
-3.38707
-3.70997
-4.02977
-4.34655
-4.6604
-4.97142
-5.27968
-5.58526
-5.88824
-6.1887
-6.4867
-6.7823
-7.07557
-7.36656
-7.65531
-7.94188
-8.22629
-8.50857
-8.78875
-9.06684
-9.34284
-9.61675
-9.88854
-10.1582
-10.4257
-10.6909
-10.9538
-11.2144
-11.4724
-11.7278
-11.9805
-12.2302
-12.4768
-12.72
-12.9597
-13.1956
-13.4273
-13.6545
-13.877
-14.0943
-14.306
-14.5117
-14.711
-14.9035
-15.0886
-15.2661
-15.4354
-15.5962
-15.7481
-15.8909
-16.0242
-16.1481
-16.2623
11.6958
11.6937
11.6559
11.5785
11.4668
11.3229
11.1478
10.9433
10.7115
10.4547
10.1751
9.87516
9.5572
9.22347
8.87616
8.51733
8.14889
7.77261
7.3901
7.00282
6.61207
6.219
5.82463
5.42983
5.03537
4.6419
4.24998
3.86007
3.47255
3.08773
2.70589
2.3272
1.95184
1.57992
1.21151
0.846668
0.485426
0.127789
-0.226253
-0.576726
-0.923665
-1.26712
-1.60713
-1.94378
-2.27711
-2.6072
-2.93412
-3.25794
-3.57873
-3.89656
-4.21151
-4.52364
-4.83303
-5.13975
-5.44385
-5.74539
-6.04445
-6.34107
-6.63531
-6.9272
-7.2168
-7.50415
-7.78926
-8.07217
-8.3529
-8.63146
-8.90785
-9.18207
-9.45411
-9.72393
-9.99151
-10.2568
-10.5197
-10.7802
-11.0382
-11.2936
-11.5462
-11.7959
-12.0426
-12.286
-12.526
-12.7623
-12.9947
-13.223
-13.4467
-13.6656
-13.8794
-14.0877
-14.2901
-14.4863
-14.6758
-14.8583
-15.0333
-15.2007
-15.3599
-15.5108
-15.6531
-15.7865
-15.9111
-16.0266
11.2877
11.2857
11.2509
11.1799
11.0772
10.9448
10.7835
10.5947
10.3802
10.1421
9.88234
9.60293
9.30594
8.99339
8.66722
8.3293
7.98136
7.62504
7.26184
6.89313
6.52013
6.14397
5.76562
5.38597
5.00577
4.62568
4.24629
3.86807
3.49146
3.11679
2.74436
2.37441
2.00714
1.64269
1.28119
0.922724
0.567361
0.215142
-0.133911
-0.479788
-0.822495
-1.16205
-1.49848
-1.83181
-2.16208
-2.48935
-2.81365
-3.13503
-3.45356
-3.76927
-4.08223
-4.39249
-4.7001
-5.00511
-5.30758
-5.60754
-5.90506
-6.20016
-6.49289
-6.78328
-7.07136
-7.35717
-7.64072
-7.92203
-8.20111
-8.47796
-8.75257
-9.02494
-9.29504
-9.56285
-9.82831
-10.0914
-10.352
-10.6101
-10.8656
-11.1183
-11.3682
-11.615
-11.8588
-12.0992
-12.3361
-12.5692
-12.7984
-13.0233
-13.2438
-13.4595
-13.67
-13.8752
-14.0746
-14.2679
-14.4547
-14.6348
-14.8078
-14.9735
-15.1314
-15.2814
-15.4233
-15.5569
-15.6821
-15.7989
10.9119
10.91
10.8779
10.8124
10.7176
10.5953
10.446
10.271
10.0719
9.8504
9.6082
9.34711
9.06894
8.77546
8.46843
8.14951
7.8203
7.4823
7.1369
6.78537
6.42888
6.06851
5.7052
5.33981
4.9731
4.60572
4.23828
3.87127
3.50515
3.14027
2.77697
2.41552
2.05614
1.69902
1.34432
0.992156
0.642625
0.295803
-0.0482567
-0.389516
-0.727951
-1.06355
-1.39632
-1.72626
-2.05339
-2.37773
-2.69931
-3.01816
-3.33431
-3.64779
-3.95864
-4.2669
-4.57261
-4.8758
-5.17652
-5.47478
-5.77063
-6.0641
-6.35521
-6.64399
-6.93046
-7.21464
-7.49654
-7.77616
-8.05351
-8.32858
-8.60135
-8.87182
-9.13996
-9.40571
-9.66905
-9.92991
-10.1882
-10.4439
-10.6969
-10.9471
-11.1943
-11.4384
-11.6793
-11.9168
-12.1507
-12.3809
-12.607
-12.8289
-13.0463
-13.2589
-13.4665
-13.6688
-13.8654
-14.0561
-14.2406
-14.4186
-14.5898
-14.7539
-14.9107
-15.06
-15.2016
-15.3353
-15.4612
-15.5792
10.5658
10.5641
10.5344
10.4737
10.3858
10.2723
10.1336
9.97083
9.78533
9.57856
9.35204
9.10734
8.84605
8.56977
8.28005
7.97841
7.6663
7.34508
7.01606
6.68041
6.33926
5.9936
5.64436
5.29237
4.93838
4.58305
4.22696
3.87065
3.51456
3.1591
2.8046
2.45137
2.09966
1.74969
1.40164
1.05566
0.711874
0.370389
0.0312845
-0.305374
-0.639538
-0.971171
-1.30025
-1.62676
-1.95069
-2.27205
-2.59084
-2.90708
-3.22077
-3.53193
-3.84059
-4.14677
-4.45049
-4.75177
-5.05064
-5.34711
-5.64121
-5.93296
-6.22237
-6.50946
-6.79424
-7.07671
-7.35689
-7.63476
-7.91032
-8.18356
-8.45446
-8.723
-8.98914
-9.25283
-9.51404
-9.7727
-10.0287
-10.2821
-10.5326
-10.7803
-11.0249
-11.2664
-11.5046
-11.7393
-11.9704
-12.1977
-12.4209
-12.6399
-12.8545
-13.0643
-13.2691
-13.4688
-13.6629
-13.8513
-14.0336
-14.2097
-14.3792
-14.542
-14.6978
-14.8465
-14.9878
-15.1218
-15.2484
-15.3674
10.2474
10.2458
10.2182
10.1617
10.0799
9.97419
9.84486
9.69287
9.51942
9.32576
9.11322
8.88319
8.63708
8.3763
8.10226
7.81631
7.51979
7.21395
6.89998
6.579
6.25204
5.92008
5.58397
5.24455
4.90252
4.55855
4.21322
3.86707
3.52056
3.1741
2.82806
2.48275
2.13846
1.79541
1.45383
1.11389
0.775728
0.439485
0.105265
-0.226843
-0.556768
-0.884451
-1.20984
-1.53291
-1.85363
-2.17198
-2.48794
-2.80152
-3.1127
-3.4215
-3.72791
-4.03194
-4.3336
-4.63291
-4.92986
-5.22448
-5.51677
-5.80673
-6.09438
-6.37972
-6.66275
-6.94346
-7.22187
-7.49795
-7.77169
-8.04307
-8.31207
-8.57865
-8.84279
-9.10442
-9.36351
-9.61998
-9.87377
-10.1248
-10.373
-10.6182
-10.8603
-11.0992
-11.3348
-11.5669
-11.7953
-12.0199
-12.2404
-12.4567
-12.6686
-12.8758
-13.0781
-13.2753
-13.4672
-13.6534
-13.8338
-14.0081
-14.1762
-14.3377
-14.4927
-14.6408
-14.782
-14.9162
-15.0434
-15.1634
9.95472
9.95322
9.9274
9.87465
9.79826
9.69937
9.57832
9.4359
9.27315
9.09117
8.89113
8.67424
8.44177
8.19498
7.93512
7.66344
7.38113
7.08936
6.78921
6.48174
6.16792
5.84865
5.52478
5.19709
4.86629
4.53301
4.19784
3.86132
3.52391
3.18603
2.84808
2.51037
2.17321
1.83685
1.50153
1.16744
0.834765
0.503643
0.174208
-0.153431
-0.479178
-0.802955
-1.12469
-1.44434
-1.76185
-2.07718
-2.39031
-2.70121
-3.00986
-3.31626
-3.62038
-3.92223
-4.2218
-4.51908
-4.81408
-5.1068
-5.39723
-5.68536
-5.97121
-6.25475
-6.53599
-6.81492
-7.09152
-7.36578
-7.63767
-7.90718
-8.17426
-8.4389
-8.70103
-8.96062
-9.21761
-9.47193
-9.72351
-9.97227
-10.2181
-10.4609
-10.7006
-10.9371
-11.1702
-11.3997
-11.6256
-11.8476
-12.0656
-12.2794
-12.4888
-12.6936
-12.8936
-13.0885
-13.2782
-13.4625
-13.6411
-13.8139
-13.9806
-14.1411
-14.2953
-14.4429
-14.584
-14.7184
-14.8461
-14.9671
9.68599
9.68457
9.66037
9.61091
9.53927
9.44646
9.33275
9.19882
9.04559
8.87403
8.68516
8.48007
8.25986
8.02569
7.77867
7.51993
7.25057
6.97165
6.68418
6.38913
6.08743
5.77993
5.46744
5.15069
4.83038
4.50713
4.18152
3.85409
3.52529
3.19557
2.86532
2.53487
2.20454
1.87461
1.54532
1.21689
0.889522
0.563374
0.238599
-0.0846721
-0.406327
-0.726267
-1.04441
-1.36067
-1.675
-1.98734
-2.29764
-2.60587
-2.91199
-3.21597
-3.5178
-3.81745
-4.1149
-4.41014
-4.70316
-4.99395
-5.28249
-5.56877
-5.85278
-6.13451
-6.41394
-6.69106
-6.96584
-7.23826
-7.5083
-7.77593
-8.0411
-8.30379
-8.56394
-8.8215
-9.07642
-9.32862
-9.57804
-9.82459
-10.0682
-10.3087
-10.5461
-10.7802
-11.0109
-11.238
-11.4615
-11.6811
-11.8966
-12.1081
-12.3151
-12.5176
-12.7154
-12.9083
-13.0961
-13.2785
-13.4555
-13.6269
-13.7924
-13.9519
-14.1054
-14.2527
-14.3936
-14.5282
-14.6565
-14.7783
9.43973
9.43839
9.41562
9.36908
9.30164
9.21421
9.10702
8.98065
8.8359
8.67363
8.49476
8.30024
8.09107
7.86827
7.63287
7.38587
7.12829
6.8611
6.58523
6.3016
6.01107
5.71444
5.41248
5.10591
4.79538
4.48152
4.16488
3.84599
3.52533
3.20332
2.88037
2.55683
2.23302
1.90923
1.58573
1.26275
0.940491
0.619151
0.298893
-0.0201357
-0.337804
-0.653997
-0.968611
-1.28156
-1.59276
-1.90214
-2.20965
-2.51523
-2.81883
-3.12041
-3.41994
-3.71739
-4.01272
-4.30591
-4.59694
-4.88579
-5.17243
-5.45684
-5.73901
-6.01891
-6.29653
-6.57182
-6.84478
-7.11537
-7.38356
-7.64931
-7.91259
-8.17335
-8.43154
-8.6871
-8.93998
-9.19011
-9.43742
-9.68182
-9.92323
-10.1615
-10.3967
-10.6285
-10.8569
-11.0817
-11.3029
-11.5202
-11.7335