/*--------------------------------*- C++ -*----------------------------------*\
| =========                 |                                                 |
| \\      /  F ield         | OpenFOAM: The Open Source CFD Toolbox           |
|  \\    /   O peration     | Version:  2406                                  |
|   \\  /    A nd           | Website:  www.openfoam.com                      |
|    \\/     M anipulation  |                                                 |
\*---------------------------------------------------------------------------*/
FoamFile
{
    version     2.0;
    format      ascii;
    arch        "LSB;label=32;scalar=64";
    class       surfaceScalarField;
    location    "804";
    object      phi;
}
// * * * * * * * * * * * * * * * * * * * * * * * * * * * * * * * * * * * * * //

dimensions      [0 3 -1 0 0 0 0];

oriented        oriented;

internalField   nonuniform List<scalar> 
299000
(
0.0796643
0.0203357
0.058679
0.0209853
0.0442545
0.0144246
0.0348016
0.00945289
0.0284995
0.00630209
0.0241891
0.00431043
0.0211372
0.00305186
0.0188875
0.00224968
0.0171634
0.00172413
0.015797
0.00136638
0.014684
0.00111304
0.0137569
0.000927039
0.0129708
0.000786099
0.0122945
0.00067638
0.0117054
0.000589004
0.0111874
0.000518087
0.0107278
0.000459602
0.0103171
0.000410708
0.0099477
0.000369353
0.00961368
0.000334015
0.00931014
0.000303547
0.00903307
0.000277069
0.00877917
0.000253893
0.0085457
0.000233477
0.00833031
0.000215387
0.00813104
0.000199273
0.00794619
0.000184848
0.00777431
0.000171878
0.00761414
0.000160168
0.00746459
0.000149554
0.00732469
0.000139901
0.0071936
0.00013109
0.00707057
0.000123025
0.00695495
0.00011562
0.00684615
0.000108802
0.00674364
0.000102508
0.00664696
9.66849e-05
0.00655567
9.12835e-05
0.00646941
8.62622e-05
0.00638783
8.15844e-05
0.00631061
7.72176e-05
0.00623747
7.3133e-05
0.00616817
6.93051e-05
0.00610246
6.57109e-05
0.00604013
6.233e-05
0.00598098
5.91442e-05
0.00592485
5.61369e-05
0.00587155
5.32931e-05
0.00582095
5.05993e-05
0.00577291
4.80432e-05
0.0057273
4.56136e-05
0.005684
4.33001e-05
0.0056429
4.10935e-05
0.00560392
3.89848e-05
0.00556695
3.69662e-05
0.00553192
3.50302e-05
0.00549875
3.31698e-05
0.00546737
3.13785e-05
0.00543772
2.96501e-05
0.00540974
2.79789e-05
0.00538339
2.63594e-05
0.0053586
2.47862e-05
0.00533534
2.32543e-05
0.00531359
2.17588e-05
0.00529329
2.02947e-05
0.00527443
1.88573e-05
0.00525699
1.74418e-05
0.00524095
1.60433e-05
0.00522629
1.4657e-05
0.00521301
1.32777e-05
0.00520111
1.19001e-05
0.00519059
1.05185e-05
0.00518147
9.12683e-06
0.00517375
7.7185e-06
0.00516746
6.2862e-06
0.00516264
4.82178e-06
0.00515932
3.31602e-06
0.00515757
1.75834e-06
0.00515743
1.36444e-07
0.00515899
-1.56418e-06
0.00516235
-3.36087e-06
0.00516763
-5.27459e-06
0.00517496
-7.33111e-06
0.00518452
-9.56271e-06
0.00519653
-1.20107e-05
0.00521126
-1.47293e-05
0.00522905
-1.77926e-05
0.00525036
-2.13057e-05
0.00527579
-2.54269e-05
0.0053062
-3.0409e-05
0.00534288
-3.66828e-05
0.00538791
-4.50267e-05
0.00544482
-5.69178e-05
0.0055201
-7.52764e-05
0.0056262
-0.000106106
0.00578825
-0.000162047
0.00605743
-0.000269178
0.00653957
-0.000482144
0.00749762
-0.00095805
-0.00226813
0.00976575
0.105208
0.0151279
0.100188
0.0260052
0.0901924
0.0244201
0.0797497
0.0198956
0.070567
0.0154847
0.0629849
0.0118925
0.0568421
0.00919466
0.0518613
0.00723047
0.0477844
0.00580108
0.0444037
0.00474708
0.0415614
0.0039553
0.0391402
0.00334823
0.037053
0.00287334
0.0352345
0.00249486
0.0336354
0.00218812
0.0322177
0.0019358
0.0309518
0.00172551
0.0298143
0.00154821
0.0287864
0.0013972
0.027853
0.00126739
0.0270017
0.00115491
0.026222
0.00105673
0.0255055
0.000970453
0.0248447
0.000894191
0.0242337
0.000826408
0.0236671
0.000765859
0.0231405
0.000711523
0.0226498
0.000662553
0.0221917
0.000618246
0.0217632
0.00057801
0.0213618
0.000541346
0.0209851
0.000507831
0.020631
0.000477102
0.0202978
0.000448847
0.0199838
0.0004228
0.0196875
0.000398726
0.0194078
0.000376422
0.0191434
0.000355713
0.0188932
0.000336442
0.0186563
0.000318472
0.0184318
0.000301682
0.018219
0.000285963
0.0180171
0.000271221
0.0178254
0.000257369
0.0176434
0.000244331
0.0174705
0.000232038
0.0173062
0.000220426
0.0171501
0.000209441
0.0170017
0.00019903
0.0168606
0.000189148
0.0167264
0.000179751
0.0165989
0.000170802
0.0164778
0.000162263
0.0163626
0.000154103
0.0162533
0.00014629
0.0161495
0.000138797
0.0160511
0.000131597
0.0159578
0.000124664
0.0158695
0.000117977
0.015786
0.000111513
0.0157071
0.000105251
0.0156327
9.91712e-05
0.0155627
9.3254e-05
0.015497
8.74809e-05
0.0154354
8.18337e-05
0.015378
7.62941e-05
0.0153246
7.08442e-05
0.0152752
6.54658e-05
0.0152297
6.01406e-05
0.0151881
5.48493e-05
0.0151504
4.95722e-05
0.0151167
4.42881e-05
0.0150868
3.89747e-05
0.0150609
3.36075e-05
0.0150391
2.81596e-05
0.0150213
2.26011e-05
0.0150077
1.6898e-05
0.0149984
1.10117e-05
0.0149937
4.89695e-06
0.0149936
-1.49916e-06
0.0149985
-8.24004e-06
0.0150086
-1.54026e-05
0.0150244
-2.30816e-05
0.0150462
-3.13962e-05
0.0150747
-4.04991e-05
0.0151106
-5.05915e-05
0.0151547
-6.19466e-05
0.0152084
-7.49486e-05
0.0152731
-9.01609e-05
0.0153511
-0.000108447
0.0154456
-0.000131194
0.0155613
-0.000160719
0.0157055
-0.000201046
0.0158895
-0.000259356
0.0161322
-0.000348744
0.0164633
-0.000493181
0.01693
-0.000735837
0.017603
-0.00115516
0.0185464
-0.00190143
-0.00319422
0.0194725
0.105142
0.00998563
0.10894
0.0222076
0.107707
0.025653
0.103023
0.0245795
0.096785
0.0217229
0.0902283
0.0184492
0.0840023
0.0154206
0.0783692
0.0128636
0.0733841
0.0107861
0.0690098
0.0091214
0.0651756
0.00778948
0.0618057
0.00671816
0.0588302
0.00584882
0.056189
0.0051361
0.0538315
0.00454558
0.0517161
0.00405123
0.0498082
0.00363337
0.0480795
0.00327697
0.0465062
0.00297045
0.0450688
0.00270484
0.0437506
0.00247306
0.0425378
0.00226953
0.0414185
0.00208974
0.0403827
0.00193008
0.0394215
0.00178759
0.0385275
0.00165983
0.0376942
0.00154481
0.0369159
0.00144084
0.0361877
0.00134651
0.035505
0.00126064
0.0348642
0.00118222
0.0342616
0.00111038
0.0336943
0.00104439
0.0331596
0.000983607
0.0326549
0.00092748
0.0321781
0.000875528
0.0317272
0.00082733
0.0313004
0.000782518
0.030896
0.000740768
0.0305127
0.000701792
0.0301491
0.000665336
0.0298038
0.000631174
0.029476
0.000599105
0.0291644
0.000568947
0.0288682
0.000540538
0.0285865
0.000513732
0.0283185
0.000488397
0.0280635
0.000464413
0.0278209
0.000441671
0.02759
0.000420072
0.0273702
0.000399525
0.0271611
0.000379948
0.0269621
0.000361265
0.0267728
0.000343403
0.0265927
0.000326299
0.0264216
0.000309892
0.0262591
0.000294124
0.0261048
0.000278943
0.0259585
0.0002643
0.0258199
0.000250147
0.0256887
0.000236438
0.0255647
0.000223132
0.0254478
0.000210186
0.0253377
0.000197561
0.0252343
0.000185218
0.0251375
0.000173118
0.0250471
0.000161223
0.0249631
0.000149493
0.0248854
0.00013789
0.0248138
0.000126373
0.0247485
0.000114901
0.0246894
0.000103428
0.0246364
9.19082e-05
0.0245898
8.02897e-05
0.0245494
6.85165e-05
0.0245155
5.65261e-05
0.0244881
4.42481e-05
0.0244675
3.16022e-05
0.0244539
1.84951e-05
0.0244476
4.81747e-06
0.0244489
-9.56114e-06
0.0244583
-2.47987e-05
0.0244763
-4.10894e-05
0.0245036
-5.86768e-05
0.024541
-7.7872e-05
0.0245895
-9.90821e-05
0.0246504
-0.000122854
0.0247254
-0.000149945
0.0248167
-0.000181436
0.0249271
-0.000218928
0.0250608
-0.000264867
0.0252232
-0.000323107
0.025422
-0.000399865
0.025668
-0.000505339
0.0259756
-0.00065634
0.0263627
-0.000880268
0.0268471
-0.00122029
0.0274327
-0.00174076
0.0280568
-0.00252552
-0.00362233
0.0284849
0.103312
0.00667358
0.108501
0.0170186
0.111574
0.0225802
0.111771
0.0243821
0.109656
0.0238386
0.106063
0.0220417
0.101729
0.0197548
0.097164
0.0174284
0.0926724
0.0152777
0.088413
0.0133809
0.0844549
0.0117476
0.0808165
0.0103565
0.0774895
0.00917579
0.0744531
0.00817258
0.0716815
0.00731719
0.0691484
0.00658427
0.066829
0.00595279
0.0647004
0.00540557
0.0627422
0.00492864
0.0609364
0.00451066
0.0592671
0.00414237
0.0577204
0.00381623
0.0562841
0.00352603
0.0549475
0.00326665
0.0537013
0.00303385
0.052537
0.00282406
0.0514475
0.00263432
0.0504262
0.00246211
0.0494675
0.0023053
0.048566
0.00216207
0.0477174
0.00203086
0.0469174
0.00191033
0.0461625
0.00179933
0.0454493
0.00169684
0.0447748
0.001602
0.0441362
0.00151404
0.0435313
0.00143229
0.0429577
0.00135614
0.0424133
0.00128509
0.0418965
0.00121865
0.0414054
0.00115643
0.0409385
0.00109804
0.0404945
0.00104317
0.0400719
0.000991507
0.0396696
0.000942791
0.0392866
0.000896778
0.0389217
0.000853251
0.0385741
0.00081201
0.0382429
0.000772876
0.0379273
0.000735683
0.0376266
0.000700279
0.03734
0.000666527
0.037067
0.000634298
0.0368069
0.000603473
0.0365592
0.000573945
0.0363235
0.00054561
0.0360993
0.000518373
0.0358861
0.000492145
0.0356835
0.000466843
0.0354913
0.000442386
0.035309
0.000418699
0.0351365
0.00039571
0.0349733
0.000373349
0.0348193
0.000351548
0.0346743
0.000330242
0.034538
0.000309365
0.0344104
0.000288854
0.0342913
0.000268642
0.0341805
0.000248666
0.034078
0.000228856
0.0339837
0.000209143
0.0338977
0.000189454
0.0338199
0.00016971
0.0337504
0.000149827
0.0336892
0.000129711
0.0336365
0.000109262
0.0335923
8.8364e-05
0.0335571
6.6886e-05
0.0335309
4.46772e-05
0.0335141
2.15612e-05
0.0335072
-2.67155e-06
0.0335107
-2.82736e-05
0.0335252
-5.55538e-05
0.0335514
-8.48966e-05
0.0335903
-0.000116789
0.0336431
-0.000151862
0.0337112
-0.00019095
0.0337964
-0.000235181
0.0339011
-0.000286127
0.0340282
-0.000346029
0.0341815
-0.000418156
0.0343658
-0.000507383
0.034587
-0.000621076
0.0348521
-0.000770418
0.035168
-0.00097226
0.035539
-0.00125129
0.0359603
-0.00164155
0.0364041
-0.00218462
0.0367958
-0.00291717
-0.00382852
0.037002
0.102077
0.00459614
0.106347
0.0127485
0.110418
0.0185097
0.113045
0.0217548
0.113911
0.0229731
0.113195
0.0227578
0.11129
0.0216594
0.108609
0.0201092
0.105491
0.0183964
0.102179
0.0166924
0.0988384
0.0150884
0.0955698
0.0136251
0.092432
0.0123136
0.0894551
0.0111494
0.0866515
0.0101208
0.0840225
0.00921326
0.0815632
0.00841205
0.0792654
0.00770341
0.077119
0.00707502
0.0751136
0.00651609
0.0732386
0.00601731
0.0714842
0.00557069
0.0698408
0.00516945
0.0682997
0.00480775
0.0668528
0.00448066
0.065493
0.00418394
0.0642133
0.00391395
0.0630079
0.00366758
0.061871
0.00344214
0.0607978
0.00323532
0.0597835
0.00304509
0.0588241
0.00286972
0.0579158
0.00270765
0.0570551
0.00255756
0.0562388
0.00241827
0.0554641
0.00228875
0.0547284
0.00216806
0.0540291
0.00205541
0.0533641
0.00195006
0.0527314
0.00185138
0.052129
0.00175878
0.0515553
0.00167175
0.0510087
0.00158982
0.0504876
0.00151258
0.0499907
0.00143964
0.0495169
0.00137066
0.0490648
0.00130532
0.0486334
0.00124336
0.0482218
0.00118449
0.047829
0.00112849
0.0474542
0.00107514
0.0470964
0.00102424
0.0467551
0.000975602
0.0464296
0.000929052
0.0461191
0.000884432
0.0458231
0.000841594
0.0455411
0.000800398
0.0452725
0.000760715
0.0450169
0.00072242
0.0447739
0.000685397
0.0445431
0.000649535
0.044324
0.000614728
0.0441165
0.000580874
0.0439202
0.000547872
0.0437348
0.000515627
0.0435601
0.000484043
0.043396
0.000453025
0.0432421
0.000422478
0.0430985
0.000392307
0.0429649
0.000362412
0.0428414
0.000332692
0.0427278
0.000303039
0.0426242
0.000273341
0.0425305
0.000243476
0.0424469
0.000213311
0.0423735
0.0001827
0.0423104
0.000151478
0.0422578
0.000119462
0.042216
8.64368e-05
0.0421854
5.21564e-05
0.0421664
1.63284e-05
0.0421595
-2.13962e-05
0.0421654
-6.14415e-05
0.0421849
-0.00010433
0.0422188
-0.000150716
0.0422684
-0.000201435
0.042335
-0.000257569
0.0424204
-0.000320552
0.0425265
-0.00039232
0.042656
-0.000475531
0.0428118
-0.000573899
0.0429971
-0.000692674
0.0432153
-0.000839317
0.0434693
-0.00102437
0.0437595
-0.00126246
0.0440811
-0.00157294
0.0444189
-0.00197927
0.044739
-0.00250479
0.0449829
-0.00316106
-0.0039227
0.0450771
0.101292
0.00330398
0.104405
0.00963586
0.108104
0.0148106
0.111405
0.018454
0.113751
0.0206268
0.114945
0.0215641
0.115039
0.0215654
0.114219
0.020929
0.11271
0.0199048
0.110724
0.0186786
0.108435
0.0173776
0.105977
0.0160831
0.103448
0.0148428
0.100915
0.0136818
0.0984255
0.0126107
0.0960074
0.0116313
0.0936789
0.0107406
0.0914496
0.00993266
0.0893239
0.00920071
0.0873024
0.00853758
0.0853834
0.00793632
0.0835637
0.00739043
0.0818391
0.00689399
0.0802052
0.00644167
0.0786572
0.00602871
0.0771902
0.0056509
0.0757996
0.00530452
0.0744809
0.00498627
0.0732298
0.00469326
0.0720422
0.00442293
0.0709143
0.00417302
0.0698425
0.00394155
0.0688234
0.00372673
0.0678539
0.00352701
0.0669312
0.00334099
0.0660526
0.00316743
0.0652154
0.00300522
0.0644174
0.00285337
0.0636565
0.002711
0.0629306
0.00257729
0.0622378
0.00245155
0.0615765
0.00233311
0.0609449
0.00222139
0.0603416
0.00211587
0.0597652
0.00201604
0.0592144
0.00192149
0.0586879
0.0018318
0.0581846
0.0017466
0.0577036
0.00166557
0.0572437
0.00158839
0.056804
0.00151477
0.0563838
0.00144445
0.0559822
0.0013772
0.0555985
0.00131278
0.055232
0.00125097
0.054882
0.0011916
0.0545479
0.00113446
0.0542292
0.00107938
0.0539255
0.00102621
0.0536361
0.000974787
0.0533606
0.000924959
0.0530988
0.000876584
0.0528501
0.000829527
0.0526143
0.000783655
0.0523911
0.000738836
0.0521802
0.000694944
0.0519814
0.000651851
0.0517945
0.00060943
0.0516192
0.000567553
0.0514555
0.000526087
0.0513033
0.000484897
0.0511625
0.000443841
0.0510331
0.000402769
0.0509151
0.000361519
0.0508084
0.000319919
0.0507134
0.000277775
0.05063
0.000234876
0.0505585
0.00019098
0.0504991
0.000145816
0.0504522
9.90656e-05
0.0504181
5.03596e-05
0.0503975
-7.41081e-07
0.0503908
-5.47637e-05
0.0503988
-0.000112351
0.0504224
-0.000174296
0.0504626
-0.000241594
0.0505205
-0.000315511
0.0505976
-0.000397678
0.0506955
-0.000490232
0.050816
-0.000596004
0.0509609
-0.000718781
0.0511319
-0.000863651
0.05133
-0.00103743
0.0515547
-0.00124914
0.0518026
-0.00151029
0.0520644
-0.00183475
0.0523223
-0.0022372
0.0525467
-0.00272912
0.052696
-0.00331046
-0.00395628
0.0527296
0.100819
0.00248548
0.103015
0.00743886
0.105987
0.0118392
0.109099
0.015342
0.111865
0.0178605
0.113983
0.0194458
0.115324
0.0202248
0.11589
0.0203632
0.115765
0.02003
0.115068
0.0193749
0.113928
0.0185183
0.112459
0.0175516
0.110762
0.0165398
0.108917
0.0155271
0.106986
0.014542
0.105015
0.0136016
0.103041
0.0127149
0.101088
0.0118861
0.0991728
0.0111155
0.0973086
0.0104018
0.0955028
0.0097421
0.0937602
0.00913301
0.0920834
0.00857087
0.0904731
0.00805196
0.0889291
0.00757268
0.0874504
0.00712964
0.0860352
0.00671966
0.0846817
0.00633982
0.0833875
0.00598745
0.0821503
0.00566012
0.0809677
0.00535562
0.0798373
0.00507196
0.0787567
0.00480734
0.0777236
0.00456012
0.0767357
0.00432884
0.075791
0.00411217
0.0748873
0.0039089
0.0740227
0.00371794
0.0731954
0.00353831
0.0724036
0.00336911
0.0716456
0.00320953
0.0709199
0.00305883
0.070225
0.00291632
0.0695594
0.0027814
0.068922
0.0026535
0.0683114
0.0025321
0.0677264
0.00241673
0.0671661
0.00230695
0.0666293
0.00220235
0.0661151
0.00210257
0.0656226
0.00200727
0.065151
0.00191611
0.0646993
0.00182882
0.064267
0.0017451
0.0638533
0.0016647
0.0634575
0.00158738
0.063079
0.00151291
0.0627173
0.00144108
0.0623719
0.00137167
0.0620422
0.00130451
0.0617277
0.00123939
0.0614282
0.00117615
0.0611431
0.00111461
0.0608721
0.0010546
0.060615
0.000995965
0.0603714
0.000938541
0.0601411
0.000882169
0.0599238
0.000826688
0.0597195
0.000771938
0.0595278
0.000717753
0.0593487
0.000663964
0.0591822
0.000610394
0.0590281
0.000556856
0.0588865
0.000503151
0.0587573
0.000449064
0.0586407
0.000394359
0.0585368
0.000338778
0.0584458
0.000282029
0.0583678
0.000223782
0.0583032
0.00016366
0.0582523
0.000101225
0.0582156
3.59604e-05
0.0581936
-3.27434e-05
0.0581869
-0.000105622
0.0581962
-0.000183569
0.0582223
-0.000267684
0.0582661
-0.000359336
0.0583286
-0.000460245
0.058411
-0.000572594
0.0585142
-0.000699175
0.058639
-0.000843565
0.0587857
-0.00101034
0.0589535
-0.00120531
0.05914
-0.00143563
0.0593395
-0.0017098
0.0595418
-0.00203705
0.0597305
-0.00242583
0.059882
-0.00288061
0.0599683
-0.00339678
-0.0039539
0.0599659
0.100541
0.00194467
0.102093
0.00588684
0.104369
0.00956266
0.106997
0.0127143
0.10963
0.0152272
0.111998
0.0170786
0.113919
0.0183035
0.115305
0.0189774
0.116138
0.0191965
0.116453
0.0190605
0.116309
0.0186617
0.115782
0.0180793
0.114944
0.0173774
0.113865
0.0166057
0.112606
0.0158012
0.111217
0.0149905
0.10974
0.014192
0.108208
0.0134178
0.106648
0.0126757
0.10508
0.01197
0.103519
0.0113027
0.101978
0.0106742
0.100465
0.010084
0.0989865
0.00953062
0.0975467
0.00901248
0.0961487
0.0085276
0.0947945
0.00807393
0.0934849
0.00764941
0.0922203
0.00725203
0.0910006
0.00687986
0.0898251
0.00653105
0.0886932
0.0062039
0.0876037
0.00589678
0.0865556
0.00560822
0.0855477
0.00533682
0.0845785
0.00508131
0.0836469
0.00484052
0.0827515
0.00461337
0.0818909
0.00439885
0.081064
0.00419605
0.0802694
0.00400412
0.0795059
0.00382229
0.0787724
0.00364985
0.0780677
0.00348613
0.0773906
0.00333052
0.0767403
0.00318246
0.0761156
0.00304143
0.0755156
0.00290695
0.0749394
0.00277856
0.0743861
0.00265585
0.0738549
0.00253843
0.0733451
0.00242594
0.0728559
0.00231805
0.0723865
0.00221442
0.0719365
0.00211478
0.071505
0.00201882
0.0710916
0.0019263
0.0706958
0.00183696
0.0703169
0.00175056
0.0699545
0.00166687
0.0696082
0.00158568
0.0692776
0.00150677
0.0689623
0.00142994
0.0686619
0.00135499
0.0683761
0.00128173
0.0681047
0.00120997
0.0678473
0.00113952
0.0676038
0.00107018
0.067374
0.00100177
0.0671577
0.000934081
0.0669547
0.000866921
0.066765
0.000800078
0.0665886
0.00073333
0.0664253
0.000666442
0.0662752
0.000599162
0.0661383
0.000531215
0.0660148
0.000462299
0.0659047
0.000392079
0.0658083
0.000320177
0.0657258
0.000246164
0.0656575
0.000169548
0.0656037
8.97541e-05
0.0655649
6.11243e-06
0.0655414
-8.21733e-05
0.0655339
-0.000176055
0.0655429
-0.000276681
0.065569
-0.00038545
0.0656128
-0.000504072
0.0656749
-0.000634654
0.0657555
-0.000779793
0.0658546
-0.000942686
0.0659715
-0.00112723
0.0661043
-0.0013381
0.0662494
-0.00158071
0.0664006
-0.00186096
0.0665481
-0.00218461
0.0666783
-0.00255599
0.0667735
-0.0029758
0.0668148
-0.00343811
-0.00392719
0.0667881
0.100374
0.00157035
0.101489
0.00477203
0.10321
0.0078413
0.105327
0.0105979
0.107614
0.0129404
0.109867
0.0148249
0.111925
0.0162463
0.113672
0.0172304
0.115044
0.0178243
0.116018
0.0180859
0.116604
0.0180762
0.116829
0.0178538
0.116735
0.0174712
0.116368
0.0169732
0.115772
0.0163967
0.114992
0.0157712
0.114064
0.0151192
0.113024
0.014458
0.1119
0.0138001
0.110716
0.0131545
0.109491
0.0125274
0.108242
0.0119229
0.106983
0.0113435
0.105723
0.0107905
0.104471
0.0102643
0.103234
0.00976486
0.102016
0.0092915
0.100822
0.00884341
0.0996544
0.00841955
0.0985155
0.00801878
0.0974067
0.00763989
0.0963289
0.00728169
0.0952827
0.00694298
0.0942683
0.00662257
0.0932858
0.00631936
0.0923348
0.00603226
0.0914151
0.00576026
0.0905261
0.00550239
0.0896672
0.00525775
0.0888377
0.00502548
0.0880371
0.00480479
0.0872644
0.00459494
0.0865191
0.00439521
0.0858002
0.00420497
0.0851071
0.0040236
0.0844391
0.00385053
0.0837953
0.00368523
0.083175
0.00352719
0.0825776
0.00337596
0.0820024
0.0032311
0.0814486
0.00309218
0.0809157
0.00295884
0.0804031
0.0028307
0.0799101
0.00270741
0.0794362
0.00258867
0.0789809
0.00247415
0.0785436
0.00236357
0.0781239
0.00225665
0.0777214
0.00215312
0.0773355
0.00205274
0.0769659
0.00195524
0.0766123
0.00186041
0.0762742
0.001768
0.0759514
0.0016778
0.0756436
0.00158958
0.0753504
0.00150312
0.0750717
0.00141821
0.0748073
0.00133463
0.0745569
0.00125217
0.0743204
0.00117058
0.0740976
0.00108966
0.0738886
0.00100915
0.0736931
0.00092881
0.0735112
0.000848367
0.0733428
0.000767538
0.073188
0.000686015
0.0730468
0.000603461
0.0729194
0.000519504
0.0728058
0.000433728
0.0727063
0.000345665
0.0726211
0.000254783
0.0725504
0.000160471
0.0724945
6.20219e-05
0.0724537
-4.13901e-05
0.0724284
-0.000150735
0.0724189
-0.000267162
0.0724254
-0.000392034
0.0724483
-0.000526981
0.0724876
-0.000673946
0.0725431
-0.000835243
0.072614
-0.0010136
0.072699
-0.00121221
0.0727956
-0.00143467
0.0728997
-0.00168488
0.0730055
-0.00196674
0.0731045
-0.00228357
0.0731856
-0.00263713
0.073236
-0.00302623
0.073243
-0.00344503
-0.00388163
0.0731974
0.10027
0.00130014
0.10109
0.00395202
0.102397
0.00653415
0.104073
0.00892253
0.105976
0.0110374
0.107966
0.0128345
0.109917
0.0142953
0.111726
0.0154221
0.113316
0.016234
0.11464
0.0167612
0.115677
0.0170401
0.116421
0.0171092
0.116886
0.0170065
0.117092
0.0167674
0.117065
0.0164231
0.116836
0.0160007
0.116432
0.0155229
0.115882
0.015008
0.115211
0.0144709
0.114443
0.0139231
0.113597
0.0133736
0.11269
0.0128291
0.111739
0.0122947
0.110756
0.0117739
0.109751
0.0112691
0.108734
0.010782
0.107712
0.0103136
0.106691
0.00986429
0.105676
0.00943414
0.104672
0.00902298
0.103682
0.00863039
0.102707
0.00825585
0.101752
0.00789871
0.100816
0.00755828
0.0999015
0.00723382
0.0990091
0.00692459
0.0981396
0.00662983
0.0972932
0.0063488
0.0964701
0.00608078
0.0956705
0.00582507
0.0948944
0.00558099
0.0941414
0.00534788
0.0934115
0.00512515
0.0927043
0.00491218
0.0920194
0.00470842
0.0913566
0.00451334
0.0907154
0.00432643
0.0900954
0.00414721
0.0894961
0.00397523
0.0889172
0.00381006
0.0883581
0.00365128
0.0878184
0.00349851
0.0872977
0.00335137
0.0867956
0.00320953
0.0863116
0.00307264
0.0858454
0.00294039
0.0853965
0.00281246
0.0849646
0.00268857
0.0845493
0.00256844
0.0841502
0.00245179
0.0837671
0.00233836
0.0833996
0.0022279
0.0830475
0.00212015
0.0827104
0.00201488
0.0823881
0.00191184
0.0820804
0.00181079
0.0817872
0.0017115
0.0815081
0.00161373
0.081243
0.00151723
0.0809918
0.00142176
0.0807544
0.00132706
0.0805307
0.00123287
0.0803206
0.00113891
0.0801241
0.0010449
0.0799411
0.000950518
0.0797717
0.000855431
0.0796158
0.000759276
0.0794737
0.000661653
0.0793453
0.00056212
0.0792308
0.000460183
0.0791303
0.000355287
0.079044
0.000246801
0.078972
0.000134006
0.0789145
1.60747e-05
0.0788717
-0.000107949
0.0788437
-0.000239171
0.0788306
-0.00037888
0.0788322
-0.000528569
0.0788482
-0.000689971
0.078878
-0.000865075
0.0789205
-0.00105614
0.078974
-0.00126567
0.0790357
-0.00149634
0.0791016
-0.00175084
0.0791665
-0.0020316
0.0792232
-0.00234029
0.0792633
-0.00267718
0.0792773
-0.00304022
0.0792564
-0.00342417
-0.00382
0.0791948
0.100202
0.00109786
0.100821
0.0033332
0.101827
0.00552864
0.103151
0.00759814
0.104707
0.00948134
0.106401
0.0111403
0.108142
0.012554
0.109849
0.0137157
0.111452
0.0146305
0.112901
0.0153125
0.11416
0.0157815
0.115207
0.0160614
0.116037
0.0161772
0.11665
0.0161542
0.117057
0.0160164
0.117271
0.015786
0.117312
0.0154826
0.117196
0.0151232
0.116945
0.0147225
0.116575
0.0142926
0.116105
0.0138436
0.115551
0.0133836
0.114926
0.0129191
0.114245
0.0124553
0.113518
0.0119962
0.112755
0.0115447
0.111966
0.0111032
0.111156
0.0106734
0.110334
0.0102562
0.109505
0.00985253
0.108672
0.00946277
0.107841
0.0090871
0.107014
0.00872551
0.106195
0.00837785
0.105385
0.00804384
0.104586
0.00772315
0.103801
0.00741537
0.103029
0.00712005
0.102274
0.00683673
0.101534
0.00656491
0.100811
0.00630411
0.100105
0.00605384
0.0994162
0.0058136
0.0987454
0.00558292
0.0980925
0.00536133
0.0974575
0.00514837
0.0968403
0.0049436
0.0962409
0.0047466
0.0956592
0.00455695
0.095095
0.00437427
0.0945481
0.00419816
0.0940184
0.00402826
0.0935055
0.00386422
0.0930094
0.0037057
0.0925296
0.00355237
0.0920661
0.00340392
0.0916185
0.00326005
0.0911866
0.00312045
0.0907702
0.00298485
0.090369
0.00285297
0.0899828
0.00272454
0.0896114
0.00259929
0.0892546
0.00247697
0.0889122
0.00235731
0.088584
0.00224008
0.0882698
0.002125
0.0879694
0.00201184
0.0876828
0.00190034
0.0874098
0.00179024
0.0871503
0.00168127
0.0869042
0.00157317
0.0866714
0.00146565
0.0864519
0.00135843
0.0862456
0.00125118
0.0860525
0.00114358
0.0858727
0.00103527
0.0857061
0.000925881
0.0855528
0.000814985
0.0854127
0.000702127
0.0852861
0.000586801
0.085173
0.000468443
0.0850734
0.000346421
0.0849873
0.000220022
0.084915
8.8443e-05
0.0848562
-4.92312e-05
0.0848111
-0.000194039
0.0847794
-0.000347157
0.0847607
-0.000509921
0.0847546
-0.000683828
0.0847601
-0.00087054
0.0847758
-0.00107187
0.0847999
-0.00128972
0.0848295
-0.00152603
0.0848612
-0.00178254
0.0848903
-0.00206065
0.084911
-0.00236096
0.0849167
-0.00268291
0.0849006
-0.00302417
0.0848567
-0.00338022
-0.00374413
0.0847808
0.100156
0.000941698
0.100635
0.00285449
0.101421
0.00474216
0.102476
0.00654372
0.103743
0.0082138
0.105162
0.00972155
0.106669
0.0110476
0.108202
0.0121824
0.109707
0.013125
0.111139
0.013881
0.11246
0.0144606
0.113643
0.0148777
0.114672
0.0151483
0.115537
0.0152892
0.116236
0.0153177
0.116772
0.0152503
0.117152
0.0151028
0.117385
0.0148894
0.117485
0.0146229
0.117463
0.0143148
0.117332
0.0139746
0.117105
0.0136108
0.116793
0.0132305
0.116409
0.0128394
0.115963
0.0124425
0.115464
0.0120437
0.114921
0.0116461
0.114342
0.0112524
0.113734
0.0108645
0.113102
0.0104839
0.112453
0.0101119
0.111791
0.00974913
0.11112
0.00939633
0.110444
0.00905385
0.109766
0.0087219
0.109089
0.00840056
0.108414
0.00808981
0.107745
0.00778953
0.107082
0.00749954
0.106427
0.00721962
0.105782
0.0069495
0.105147
0.00668887
0.104523
0.00643743
0.103911
0.00619484
0.103312
0.00596077
0.102725
0.00573486
0.102152
0.00551678
0.101593
0.00530618
0.101047
0.00510273
0.100515
0.00490608
0.0999972
0.00471591
0.0994936
0.00453189
0.0990041
0.00435372
0.0985287
0.00418108
0.0980674
0.00401367
0.0976202
0.00385119
0.0971869
0.00369336
0.0967674
0.0035399
0.0963617
0.00339054
0.0959697
0.00324499
0.0955912
0.003103
0.0952262
0.00296431
0.0948745
0.00282864
0.0945361
0.00269576
0.0942108
0.00256539
0.0938985
0.00243728
0.0935992
0.00231118
0.0933127
0.00218682
0.093039
0.00206393
0.092778
0.00194224
0.0925297
0.00182148
0.092294
0.00170134
0.092071
0.00158152
0.0918604
0.0014617
0.0916625
0.00134155
0.091477
0.00122068
0.0913042
0.00109873
0.0911439
0.000975246
0.0909963
0.000849783
0.0908613
0.000721831
0.0907389
0.000590829
0.0906291
0.000456161
0.090532
0.000317139
0.0904475
0.000172997
0.0903753
2.28824e-05
0.0903155
-0.000134154
0.0902675
-0.000299167
0.0902309
-0.000473317
0.0902049
-0.000657868
0.0901885
-0.000854177
0.0901803
-0.00106366
0.0901783
-0.00128772
0.09018
-0.00152769
0.0901821
-0.00178464
0.0901807
-0.00205925
0.0901712
-0.00235148
0.0901486
-0.00266031
0.0901079
-0.00298344
0.0900447
-0.00331703
-0.0036557
0.0899563
0.100124
0.000818018
0.100502
0.00247569
0.101129
0.00411602
0.101978
0.00569463
0.103014
0.00717709
0.104197
0.00853867
0.105482
0.00976265
0.106825
0.0108394
0.108185
0.0117656
0.109523
0.0125425
0.110808
0.0131754
0.112014
0.013672
0.11312
0.0140424
0.114112
0.0142975
0.11498
0.0144491
0.115721
0.0145092
0.116335
0.0144895
0.116823
0.0144012
0.117191
0.0142548
0.117446
0.0140598
0.117596
0.013825
0.117648
0.013558
0.117613
0.0132657
0.117499
0.0129539
0.117314
0.0126276
0.117066
0.0122914
0.116763
0.0119487
0.116413
0.0116026
0.116022
0.0112558
0.115596
0.0109102
0.11514
0.0105676
0.11466
0.0102295
0.114159
0.00989673
0.113643
0.0095703
0.113114
0.00925083
0.112576
0.00893879
0.112031
0.0086345
0.111482
0.00833819
0.110932
0.00804997
0.110382
0.00776988
0.109833
0.00749788
0.109288
0.0072339
0.108748
0.0069778
0.108213
0.00672943
0.107685
0.0064886
0.107165
0.00625509
0.106653
0.00602869
0.10615
0.00580915
0.105657
0.00559622
0.105173
0.00538966
0.1047
0.0051892
0.104237
0.00499459
0.103785
0.00480556
0.103345
0.00462184
0.102915
0.00444319
0.102497
0.00426935
0.10209
0.00410004
0.101695
0.00393503
0.101312
0.00377405
0.10094
0.00361686
0.100579
0.0034632
0.100231
0.00331281
0.0998942
0.00316546
0.099569
0.00302089
0.0992556
0.00287885
0.0989537
0.00273909
0.0986636
0.00260134
0.0983851
0.00246534
0.0981182
0.00233084
0.0978629
0.00219754
0.0976192
0.00206517
0.0973871
0.00193344
0.0971666
0.00180202
0.0969577
0.00167061
0.0967604
0.00153885
0.0965747
0.00140637
0.0964006
0.00127279
0.0962382
0.00113768
0.0960874
0.00100059
0.0959482
0.000861019
0.0958206
0.000718425
0.0957045
0.000572215
0.0955999
0.000421742
0.0955066
0.000266292
0.0954244
0.000105085
0.095353
-6.27285e-05
0.0952919
-0.000238072
0.0952405
-0.000421936
0.095198
-0.000615366
0.0951633
-0.000819439
0.0951348
-0.00103523
0.0951109
-0.00126375
0.0950891
-0.00150587
0.0950666
-0.00176217
0.0950402
-0.00203285
0.0950062
-0.00231748
0.0949607
-0.00261487
0.0949002
-0.00292285
0.0948213
-0.00323818
-0.00355663
0.0947222
0.1001
0.000717948
0.100406
0.00216984
0.100913
0.00360887
0.101606
0.00500184
0.102461
0.00632221
0.103449
0.0075501
0.104541
0.00867138
0.105703
0.00967719
0.106905
0.0105633
0.108118
0.0113293
0.109316
0.0119775
0.110476
0.0125125
0.111578
0.0129403
0.112607
0.0132684
0.113551
0.0135046
0.114403
0.0136574
0.115157
0.0137353
0.115812
0.0137467
0.116367
0.0136997
0.116824
0.0136022
0.117188
0.0134612
0.117463
0.0132835
0.117653
0.013075
0.117766
0.0128411
0.117807
0.0125868
0.117782
0.0123162
0.117698
0.0120331
0.11756
0.0117407
0.117373
0.0114419
0.117145
0.0111389
0.116878
0.010834
0.116579
0.0105287
0.116251
0.0102245
0.115899
0.00992263
0.115526
0.00962406
0.115135
0.00932958
0.11473
0.00903982
0.114313
0.00875529
0.113886
0.00847636
0.113453
0.00820333
0.113014
0.00793638
0.112573
0.00767564
0.112129
0.00742117
0.111686
0.00717299
0.111243
0.00693105
0.110803
0.00669531
0.110366
0.00646565
0.109933
0.00624195
0.109505
0.00602407
0.109083
0.00581185
0.108667
0.00560512
0.108258
0.00540368
0.107856
0.00520735
0.107462
0.00501592
0.107076
0.00482919
0.106699
0.00464695
0.10633
0.00446897
0.10597
0.00429504
0.105619
0.00412494
0.105277
0.00395844
0.104945
0.00379531
0.104623
0.00363533
0.10431
0.00347827
0.104007
0.00332389
0.103714
0.00317194
0.103431
0.0030222
0.103158
0.0028744
0.102895
0.0027283
0.102642
0.00258363
0.102399
0.00244012
0.102167
0.00229749
0.101945
0.00215546
0.101733
0.00201371
0.101532
0.00187192
0.101341
0.00172976
0.101161
0.00158686
0.10099
0.00144284
0.100831
0.00129729
0.100682
0.00114976
0.100543
0.00099978
0.100415
0.000846832
0.100296
0.000690361
0.100188
0.000529763
0.10009
0.000364388
0.100002
0.000193536
0.0999227
1.64587e-05
0.0998522
-0.000167637
0.0997899
-0.000359579
0.0997347
-0.000560214
0.0996857