/*--------------------------------*- C++ -*----------------------------------*\
| =========                 |                                                 |
| \\      /  F ield         | OpenFOAM: The Open Source CFD Toolbox           |
|  \\    /   O peration     | Version:  2406                                  |
|   \\  /    A nd           | Website:  www.openfoam.com                      |
|    \\/     M anipulation  |                                                 |
\*---------------------------------------------------------------------------*/
FoamFile
{
    version     2.0;
    format      ascii;
    arch        "LSB;label=32;scalar=64";
    class       volVectorField;
    location    "804";
    object      U;
}
// * * * * * * * * * * * * * * * * * * * * * * * * * * * * * * * * * * * * * //

dimensions      [0 1 -1 0 0 0 0];

internalField   nonuniform List<vector> 
150000
(
(7.94097 0.953546 0)
(6.6975 1.02916 0)
(5.17749 0.578432 0)
(3.90217 0.294374 0)
(3.11146 0.166104 0)
(2.60338 0.0998797 0)
(2.2473 0.0624372 0)
(1.98817 0.0414195 0)
(1.79339 0.0293181 0)
(1.6415 0.0219131 0)
(1.51925 0.017097 0)
(1.4184 0.0137954 0)
(1.33355 0.0114239 0)
(1.26101 0.00965123 0)
(1.19817 0.00828235 0)
(1.14314 0.00719753 0)
(1.0945 0.0063197 0)
(1.05118 0.00559716 0)
(1.01233 0.00499393 0)
(0.97729 0.00448425 0)
(0.945514 0.00404912 0)
(0.916569 0.00367426 0)
(0.890091 0.00334874 0)
(0.865783 0.00306402 0)
(0.84339 0.00281339 0)
(0.8227 0.00259148 0)
(0.803531 0.00239394 0)
(0.785727 0.00221724 0)
(0.769153 0.00205847 0)
(0.753691 0.00191521 0)
(0.73924 0.00178546 0)
(0.72571 0.00166752 0)
(0.713021 0.00155994 0)
(0.701103 0.00146152 0)
(0.689896 0.0013712 0)
(0.679342 0.00128809 0)
(0.669393 0.00121141 0)
(0.660004 0.00114048 0)
(0.651136 0.00107472 0)
(0.642751 0.0010136 0)
(0.634818 0.000956676 0)
(0.627307 0.000903544 0)
(0.620192 0.000853848 0)
(0.613446 0.000807273 0)
(0.607049 0.000763536 0)
(0.60098 0.000722384 0)
(0.59522 0.000683592 0)
(0.589752 0.000646953 0)
(0.584561 0.000612283 0)
(0.579632 0.000579414 0)
(0.574952 0.000548193 0)
(0.570509 0.000518479 0)
(0.566292 0.000490146 0)
(0.562291 0.000463075 0)
(0.558495 0.000437156 0)
(0.554897 0.000412289 0)
(0.551489 0.000388379 0)
(0.548263 0.000365337 0)
(0.545213 0.00034308 0)
(0.542333 0.00032153 0)
(0.539617 0.00030061 0)
(0.537061 0.000280248 0)
(0.53466 0.000260374 0)
(0.53241 0.000240919 0)
(0.530308 0.000221816 0)
(0.528351 0.000202998 0)
(0.526537 0.000184396 0)
(0.524863 0.000165942 0)
(0.523328 0.000147565 0)
(0.521932 0.000129191 0)
(0.520673 0.000110742 0)
(0.519552 9.21341e-05 0)
(0.518569 7.3277e-05 0)
(0.517726 5.40715e-05 0)
(0.517026 3.44072e-05 0)
(0.516469 1.41602e-05 0)
(0.516061 -6.8106e-06 0)
(0.515806 -2.86674e-05 0)
(0.51571 -5.15988e-05 0)
(0.515779 -7.58286e-05 0)
(0.516023 -0.000101623 0)
(0.516452 -0.000129301 0)
(0.517078 -0.000159252 0)
(0.517918 -0.000191954 0)
(0.518991 -0.000228014 0)
(0.520321 -0.000268218 0)
(0.521938 -0.000313635 0)
(0.52388 -0.00036582 0)
(0.5262 -0.000427239 0)
(0.528967 -0.000502217 0)
(0.532283 -0.000599058 0)
(0.536307 -0.000734829 0)
(0.541298 -0.000946213 0)
(0.547718 -0.00131605 0)
(0.556436 -0.00204202 0)
(0.569082 -0.00359301 0)
(0.588835 -0.00703853 0)
(0.623428 -0.0156073 0)
(0.694686 -0.0458284 0)
(0.80627 -0.169356 0)
(10.2186 1.88712 0)
(10.3826 2.72495 0)
(9.62168 2.24108 0)
(8.49556 1.62035 0)
(7.47668 1.14058 0)
(6.64213 0.808039 0)
(5.96298 0.586496 0)
(5.41216 0.439646 0)
(4.96408 0.340513 0)
(4.59521 0.271612 0)
(4.28713 0.22215 0)
(4.02625 0.185508 0)
(3.80255 0.157577 0)
(3.60858 0.135748 0)
(3.43871 0.118321 0)
(3.28866 0.104151 0)
(3.1551 0.0924497 0)
(3.03543 0.0826582 0)
(2.92756 0.0743699 0)
(2.82983 0.0672828 0)
(2.74087 0.0611691 0)
(2.65954 0.055853 0)
(2.58492 0.0511978 0)
(2.51622 0.0470952 0)
(2.45277 0.0434586 0)
(2.39401 0.040218 0)
(2.33945 0.0373161 0)
(2.28867 0.0347061 0)
(2.24131 0.0323489 0)
(2.19705 0.0302119 0)
(2.15562 0.0282676 0)
(2.11676 0.0264927 0)
(2.08027 0.0248675 0)
(2.04594 0.023375 0)
(2.01362 0.0220006 0)
(1.98314 0.0207317 0)
(1.95437 0.0195573 0)
(1.92719 0.0184678 0)
(1.90149 0.0174549 0)
(1.87716 0.016511 0)
(1.85411 0.0156298 0)
(1.83226 0.0148054 0)
(1.81154 0.0140328 0)
(1.79188 0.0133072 0)
(1.77321 0.0126246 0)
(1.75548 0.0119813 0)
(1.73863 0.011374 0)
(1.72262 0.0107997 0)
(1.7074 0.0102556 0)
(1.69293 0.00973927 0)
(1.67918 0.00924848 0)
(1.66611 0.00878113 0)
(1.65368 0.00833534 0)
(1.64187 0.00790935 0)
(1.63066 0.00750153 0)
(1.62001 0.0071104 0)
(1.6099 0.00673454 0)
(1.60032 0.00637265 0)
(1.59125 0.0060235 0)
(1.58266 0.00568591 0)
(1.57454 0.00535878 0)
(1.56688 0.00504104 0)
(1.55966 0.00473167 0)
(1.55288 0.00442967 0)
(1.54652 0.00413407 0)
(1.54057 0.0038439 0)
(1.53503 0.0035582 0)
(1.52989 0.003276 0)
(1.52515 0.0029963 0)
(1.52079 0.00271809 0)
(1.51683 0.00244028 0)
(1.51326 0.00216174 0)
(1.51008 0.00188126 0)
(1.50729 0.00159749 0)
(1.5049 0.00130899 0)
(1.50292 0.0010141 0)
(1.50134 0.000710987 0)
(1.5002 0.000397512 0)
(1.49949 7.12035e-05 0)
(1.49925 -0.000270858 0)
(1.49948 -0.000632163 0)
(1.50022 -0.00101695 0)
(1.50151 -0.00143043 0)
(1.50337 -0.00187918 0)
(1.50587 -0.00237162 0)
(1.50907 -0.00291887 0)
(1.51305 -0.00353614 0)
(1.51791 -0.00424508 0)
(1.52378 -0.00507811 0)
(1.53086 -0.00608654 0)
(1.53939 -0.00735624 0)
(1.54977 -0.00903853 0)
(1.56255 -0.011412 0)
(1.57862 -0.0150075 0)
(1.59943 -0.0208652 0)
(1.62723 -0.031046 0)
(1.66577 -0.0495897 0)
(1.72154 -0.0844386 0)
(1.80367 -0.152253 0)
(1.8968 -0.285969 0)
(10.1768 1.34552 0)
(10.7882 2.53797 0)
(10.9413 2.66466 0)
(10.5996 2.36743 0)
(10.0101 1.96121 0)
(9.34892 1.57593 0)
(8.70048 1.25814 0)
(8.10393 1.01161 0)
(7.57273 0.824128 0)
(7.10604 0.681543 0)
(6.69733 0.57206 0)
(6.33882 0.486806 0)
(6.02306 0.419369 0)
(5.74352 0.365189 0)
(5.49468 0.321016 0)
(5.27194 0.284515 0)
(5.07152 0.253987 0)
(4.89031 0.228176 0)
(4.72573 0.206141 0)
(4.57563 0.187164 0)
(4.43822 0.170692 0)
(4.31198 0.156294 0)
(4.19565 0.143627 0)
(4.08812 0.132418 0)
(3.98846 0.122446 0)
(3.89587 0.11353 0)
(3.80966 0.105522 0)
(3.72921 0.0983008 0)
(3.654 0.0917625 0)
(3.58356 0.0858216 0)
(3.51747 0.0804051 0)
(3.45538 0.0754513 0)
(3.39696 0.0709072 0)
(3.34192 0.0667272 0)
(3.29 0.0628722 0)
(3.24098 0.0593079 0)
(3.19464 0.0560047 0)
(3.1508 0.0529366 0)
(3.10928 0.0500807 0)
(3.06993 0.0474168 0)
(3.03262 0.0449272 0)
(2.9972 0.0425959 0)
(2.96357 0.0404089 0)
(2.93162 0.0383536 0)
(2.90126 0.0364186 0)
(2.87238 0.0345938 0)
(2.84492 0.03287 0)
(2.81879 0.0312389 0)
(2.79392 0.0296929 0)
(2.77026 0.0282252 0)
(2.74774 0.0268294 0)
(2.7263 0.0254999 0)
(2.70591 0.0242315 0)
(2.6865 0.0230191 0)
(2.66805 0.0218583 0)
(2.6505 0.0207449 0)
(2.63383 0.0196751 0)
(2.618 0.0186451 0)
(2.60297 0.0176516 0)
(2.58873 0.0166913 0)
(2.57525 0.015761 0)
(2.56249 0.0148579 0)
(2.55045 0.0139791 0)
(2.53911 0.0131218 0)
(2.52844 0.0122833 0)
(2.51843 0.011461 0)
(2.50907 0.0106522 0)
(2.50036 0.00985424 0)
(2.49227 0.00906438 0)
(2.48481 0.00827981 0)
(2.47796 0.00749763 0)
(2.47174 0.00671473 0)
(2.46614 0.00592781 0)
(2.46115 0.00513329 0)
(2.4568 0.00432722 0)
(2.45308 0.00350522 0)
(2.45001 0.00266231 0)
(2.44761 0.00179283 0)
(2.4459 0.000890161 0)
(2.44489 -5.34529e-05 0)
(2.44463 -0.00104729 0)
(2.44516 -0.00210262 0)
(2.44651 -0.00323333 0)
(2.44876 -0.00445688 0)
(2.45197 -0.00579568 0)
(2.45624 -0.00727923 0)
(2.46167 -0.0089475 0)
(2.46842 -0.0108565 0)
(2.47667 -0.0130876 0)
(2.48668 -0.0157642 0)
(2.49878 -0.0190801 0)
(2.51342 -0.0233518 0)
(2.53127 -0.0291109 0)
(2.55321 -0.0372705 0)
(2.58049 -0.0494171 0)
(2.61475 -0.0682971 0)
(2.65791 -0.0985429 0)
(2.71176 -0.147676 0)
(2.77514 -0.227102 0)
(2.83175 -0.347946 0)
(10.0798 0.823408 0)
(10.5966 1.94653 0)
(11.0631 2.45333 0)
(11.2347 2.53063 0)
(11.1192 2.36881 0)
(10.8126 2.10356 0)
(10.4011 1.819 0)
(9.94646 1.55636 0)
(9.48806 1.32979 0)
(9.04778 1.14038 0)
(8.63587 0.984075 0)
(8.25593 0.855453 0)
(7.90801 0.749285 0)
(7.59039 0.661108 0)
(7.3006 0.587313 0)
(7.03598 0.525051 0)
(6.79393 0.472091 0)
(6.57205 0.426689 0)
(6.36818 0.387478 0)
(6.18039 0.35338 0)
(6.00699 0.323536 0)
(5.84651 0.297262 0)
(5.69764 0.274001 0)
(5.55924 0.253305 0)
(5.43031 0.234802 0)
(5.30998 0.218188 0)
(5.19746 0.203209 0)
(5.09207 0.189653 0)
(4.9932 0.17734 0)
(4.90031 0.166121 0)
(4.81292 0.155864 0)
(4.73058 0.146462 0)
(4.65292 0.137818 0)
(4.57959 0.12985 0)
(4.51027 0.122489 0)
(4.44469 0.11567 0)
(4.38257 0.109341 0)
(4.32369 0.103453 0)
(4.26785 0.0979651 0)
(4.21483 0.0928395 0)
(4.16447 0.0880433 0)
(4.11661 0.0835472 0)
(4.0711 0.0793249 0)
(4.0278 0.075353 0)
(3.98659 0.0716102 0)
(3.94735 0.0680776 0)
(3.90998 0.0647379 0)
(3.87438 0.0615755 0)
(3.84046 0.0585763 0)
(3.80813 0.0557272 0)
(3.77733 0.0530165 0)
(3.74798 0.0504332 0)
(3.72002 0.0479675 0)
(3.69338 0.04561 0)
(3.668 0.0433522 0)
(3.64385 0.0411863 0)
(3.62086 0.0391046 0)
(3.599 0.0371005 0)
(3.57822 0.0351672 0)
(3.55849 0.0332986 0)
(3.53977 0.0314889 0)
(3.52204 0.0297324 0)
(3.50526 0.0280237 0)
(3.4894 0.0263575 0)
(3.47446 0.0247288 0)
(3.4604 0.0231325 0)
(3.44721 0.0215635 0)
(3.43487 0.0200169 0)
(3.42338 0.0184874 0)
(3.41272 0.0169698 0)
(3.40288 0.0154587 0)
(3.39387 0.0139482 0)
(3.38568 0.0124322 0)
(3.37831 0.0109041 0)
(3.37177 0.0093565 0)
(3.36607 0.0077814 0)
(3.36122 0.00616964 0)
(3.35725 0.00451083 0)
(3.35417 0.00279292 0)
(3.35201 0.0010018 0)
(3.35082 -0.000879367 0)
(3.35063 -0.0028709 0)
(3.35151 -0.0049978 0)
(3.35353 -0.0072913 0)
(3.35676 -0.00979127 0)
(3.36131 -0.0125497 0)
(3.36732 -0.0156359 0)
(3.37493 -0.0191454 0)
(3.38437 -0.0232128 0)
(3.39588 -0.0280344 0)
(3.40979 -0.0339042 0)
(3.42654 -0.0412732 0)
(3.44665 -0.0508469 0)
(3.47079 -0.0637382 0)
(3.49967 -0.0816984 0)
(3.53394 -0.107425 0)
(3.57378 -0.144866 0)
(3.61803 -0.199269 0)
(3.66226 -0.276177 0)
(3.69477 -0.376385 0)
(10.0426 0.546333 0)
(10.395 1.45872 0)
(10.8535 2.0517 0)
(11.2146 2.33764 0)
(11.3915 2.39326 0)
(11.3901 2.30064 0)
(11.2486 2.12914 0)
(11.01 1.92747 0)
(10.7128 1.72452 0)
(10.3862 1.53497 0)
(10.0504 1.36485 0)
(9.71793 1.2154 0)
(9.39653 1.08552 0)
(9.09027 0.973112 0)
(8.80108 0.875868 0)
(8.52948 0.791574 0)
(8.27523 0.718262 0)
(8.03759 0.654239 0)
(7.81563 0.598081 0)
(7.60829 0.548595 0)
(7.41452 0.504793 0)
(7.23329 0.46585 0)
(7.06361 0.43108 0)
(6.90459 0.39991 0)
(6.75539 0.371859 0)
(6.61522 0.346523 0)
(6.48341 0.323561 0)
(6.35929 0.302681 0)
(6.24231 0.283636 0)
(6.13192 0.266214 0)
(6.02765 0.250232 0)
(5.92907 0.235534 0)
(5.83577 0.221981 0)
(5.7474 0.209455 0)
(5.66363 0.197853 0)
(5.58415 0.187082 0)
(5.50869 0.177063 0)
(5.43699 0.167724 0)
(5.36883 0.159003 0)
(5.304 0.150845 0)
(5.24229 0.143198 0)
(5.18352 0.136019 0)
(5.12754 0.129269 0)
(5.07419 0.12291 0)
(5.02333 0.116911 0)
(4.97482 0.111243 0)
(4.92855 0.105878 0)
(4.88441 0.100794 0)
(4.84228 0.0959675 0)
(4.80208 0.0913791 0)
(4.76372 0.0870103 0)
(4.72711 0.0828441 0)
(4.69218 0.078865 0)
(4.65885 0.0750586 0)
(4.62706 0.0714115 0)
(4.59675 0.0679113 0)
(4.56787 0.0645463 0)
(4.54035 0.0613057 0)
(4.51415 0.0581792 0)
(4.48923 0.0551571 0)
(4.46555 0.05223 0)
(4.44306 0.0493893 0)
(4.42175 0.0466262 0)
(4.40156 0.0439327 0)
(4.38248 0.0413007 0)
(4.36448 0.0387221 0)
(4.34754 0.0361891 0)
(4.33165 0.0336939 0)
(4.31678 0.0312283 0)
(4.30292 0.0287842 0)
(4.29007 0.0263531 0)
(4.27821 0.0239259 0)
(4.26735 0.0214933 0)
(4.25748 0.0190448 0)
(4.24862 0.0165694 0)
(4.24076 0.0140547 0)
(4.23393 0.0114868 0)
(4.22814 0.00884989 0)
(4.22342 0.00612589 0)
(4.21979 0.00329359 0)
(4.2173 0.000327878 0)
(4.21599 -0.00280139 0)
(4.21592 -0.00613102 0)
(4.21717 -0.00970666 0)
(4.21981 -0.0135859 0)
(4.22396 -0.0178428 0)
(4.22973 -0.0225746 0)
(4.23728 -0.0279117 0)
(4.2468 -0.0340331 0)
(4.25852 -0.0411896 0)
(4.27271 -0.0497397 0)
(4.28967 -0.0602041 0)
(4.30976 -0.0733453 0)
(4.33331 -0.0902786 0)
(4.36053 -0.112611 0)
(4.3913 -0.142568 0)
(4.42476 -0.183003 0)
(4.45868 -0.23701 0)
(4.48856 -0.306628 0)
(4.5069 -0.389589 0)
(10.0236 0.385474 0)
(10.2537 1.09649 0)
(10.6178 1.64949 0)
(10.9919 2.01131 0)
(11.2853 2.19923 0)
(11.4636 2.24898 0)
(11.5245 2.20132 0)
(11.483 2.0935 0)
(11.3611 1.95425 0)
(11.1815 1.80323 0)
(10.9638 1.6527 0)
(10.7236 1.50956 0)
(10.4722 1.37718 0)
(10.2177 1.25676 0)
(9.96565 1.14828 0)
(9.71967 1.05106 0)
(9.482 0.964127 0)
(9.25393 0.886417 0)
(9.03612 0.816894 0)
(8.82877 0.754589 0)
(8.63181 0.698632 0)
(8.44496 0.648251 0)
(8.26785 0.602771 0)
(8.10004 0.561602 0)
(7.94106 0.524235 0)
(7.79042 0.490226 0)
(7.64766 0.459191 0)
(7.5123 0.430798 0)
(7.38391 0.404757 0)
(7.26208 0.380815 0)
(7.14639 0.358753 0)
(7.03649 0.338377 0)
(6.93202 0.319518 0)
(6.83267 0.302027 0)
(6.73813 0.285772 0)
(6.64813 0.270639 0)
(6.56239 0.256522 0)
(6.48069 0.243331 0)
(6.4028 0.230984 0)
(6.32851 0.219407 0)
(6.25762 0.208534 0)
(6.18995 0.198307 0)
(6.12535 0.188673 0)
(6.06364 0.179584 0)
(6.00469 0.170995 0)
(5.94836 0.162868 0)
(5.89452 0.155166 0)
(5.84306 0.147858 0)
(5.79387 0.140912 0)
(5.74685 0.134301 0)
(5.70189 0.128001 0)
(5.65892 0.121987 0)
(5.61785 0.116238 0)
(5.5786 0.110735 0)
(5.5411 0.105458 0)
(5.50529 0.100391 0)
(5.4711 0.0955175 0)
(5.43848 0.0908217 0)
(5.40737 0.0862894 0)
(5.37772 0.0819073 0)
(5.34949 0.0776621 0)
(5.32264 0.0735417 0)
(5.29712 0.0695339 0)
(5.27291 0.0656273 0)
(5.24996 0.0618105 0)
(5.22826 0.0580723 0)
(5.20778 0.0544017 0)
(5.1885 0.0507876 0)
(5.17039 0.0472188 0)
(5.15345 0.0436839 0)
(5.13766 0.0401709 0)
(5.12301 0.0366675 0)
(5.1095 0.0331605 0)
(5.09712 0.0296358 0)
(5.08589 0.0260779 0)
(5.0758 0.0224701 0)
(5.06687 0.0187935 0)
(5.05912 0.0150267 0)
(5.05257 0.0111453 0)
(5.04725 0.00712115 0)
(5.04319 0.00292082 0)
(5.04044 -0.00149533 0)
(5.03906 -0.00617524 0)
(5.03911 -0.0111777 0)
(5.04066 -0.0165761 0)
(5.04382 -0.022463 0)
(5.0487 -0.0289578 0)
(5.05541 -0.0362163 0)
(5.06412 -0.044446 0)
(5.07499 -0.053927 0)
(5.08821 -0.0650421 0)
(5.10397 -0.0783186 0)
(5.1224 -0.0944829 0)
(5.14357 -0.114525 0)
(5.16732 -0.13976 0)
(5.19308 -0.171834 0)
(5.2196 -0.212598 0)
(5.24455 -0.26366 0)
(5.26433 -0.32538 0)
(5.27427 -0.395097 0)
(10.0134 0.283939 0)
(10.1646 0.837152 0)
(10.4345 1.31439 0)
(10.7555 1.67877 0)
(11.0609 1.92461 0)
(11.3106 2.06223 0)
(11.485 2.11043 0)
(11.5792 2.09138 0)
(11.5986 2.02614 0)
(11.5544 1.93215 0)
(11.4595 1.82266 0)
(11.3263 1.70701 0)
(11.1658 1.59139 0)
(10.9869 1.47963 0)
(10.7967 1.3739 0)
(10.6006 1.27524 0)
(10.4026 1.18402 0)
(10.2057 1.10014 0)
(10.0119 1.02326 0)
(9.82273 0.952933 0)
(9.63907 0.888631 0)
(9.46156 0.829828 0)
(9.29055 0.776016 0)
(9.12618 0.726717 0)
(8.96848 0.68149 0)
(8.81738 0.639935 0)
(8.67273 0.60169 0)
(8.53435 0.566432 0)
(8.40201 0.53387 0)
(8.2755 0.503746 0)
(8.15457 0.475827 0)
(8.03898 0.449908 0)
(7.92849 0.425804 0)
(7.82286 0.403351 0)
(7.72186 0.382401 0)
(7.62529 0.362823 0)
(7.53292 0.344498 0)
(7.44455 0.32732 0)
(7.36 0.311193 0)
(7.27909 0.29603 0)
(7.20164 0.281754 0)
(7.12749 0.268293 0)
(7.05649 0.255585 0)
(6.9885 0.243569 0)
(6.92339 0.232194 0)
(6.86101 0.22141 0)
(6.80126 0.211174 0)
(6.74403 0.201444 0)
(6.68919 0.192184 0)
(6.63667 0.183358 0)
(6.58636 0.174936 0)
(6.53817 0.166887 0)
(6.49202 0.159185 0)
(6.44785 0.151804 0)
(6.40556 0.14472 0)
(6.3651 0.137912 0)
(6.3264 0.131358 0)
(6.28941 0.12504 0)
(6.25406 0.118938 0)
(6.22032 0.113035 0)
(6.18812 0.107315 0)
(6.15743 0.101761 0)
(6.12821 0.0963573 0)
(6.10041 0.0910896 0)
(6.07402 0.0859429 0)
(6.04899 0.0809027 0)
(6.0253 0.0759548 0)
(6.00292 0.0710848 0)
(5.98185 0.066278 0)
(5.96205 0.0615198 0)
(5.94351 0.0567948 0)
(5.92623 0.052087 0)
(5.9102 0.0473796 0)
(5.89542 0.0426544 0)
(5.88188 0.037892 0)
(5.86959 0.033071 0)
(5.85856 0.0281677 0)
(5.84881 0.0231553 0)
(5.84035 0.0180037 0)
(5.83321 0.0126777 0)
(5.82743 0.00713679 0)
(5.82304 0.00133282 0)
(5.82009 -0.00479168 0)
(5.81864 -0.0113063 0)
(5.81875 -0.0182964 0)
(5.82049 -0.025868 0)
(5.82396 -0.0341548 0)
(5.82926 -0.0433268 0)
(5.83648 -0.0536034 0)
(5.84573 -0.0652699 0)
(5.85711 -0.0786999 0)
(5.87068 -0.0943825 0)
(5.88643 -0.112954 0)
(5.90423 -0.135224 0)
(5.9237 -0.162186 0)
(5.94409 -0.194968 0)
(5.9641 -0.234672 0)
(5.98174 -0.282004 0)
(5.99434 -0.336625 0)
(5.99898 -0.396247 0)
(10.0083 0.218058 0)
(10.1103 0.654783 0)
(10.3067 1.05504 0)
(10.5624 1.3895 0)
(10.8344 1.6466 0)
(11.0903 1.82582 0)
(11.3082 1.93348 0)
(11.4749 1.9804 0)
(11.5857 1.97926 0)
(11.6419 1.94242 0)
(11.6487 1.88077 0)
(11.6133 1.8032 0)
(11.5432 1.71654 0)
(11.4458 1.62581 0)
(11.3275 1.53456 0)
(11.1939 1.44513 0)
(11.0497 1.35903 0)
(10.8985 1.27713 0)
(10.7433 1.1999 0)
(10.5864 1.12747 0)
(10.4297 1.05982 0)
(10.2743 0.996801 0)
(10.1214 0.938177 0)
(9.97168 0.883688 0)
(9.82566 0.833056 0)
(9.68371 0.785998 0)
(9.54607 0.742243 0)
(9.41286 0.70153 0)
(9.28414 0.663615 0)
(9.15994 0.628271 0)
(9.04019 0.595288 0)
(8.92485 0.564473 0)
(8.81381 0.535651 0)
(8.70696 0.50866 0)
(8.60418 0.483353 0)
(8.50536 0.459596 0)
(8.41035 0.437266 0)
(8.31903 0.416253 0)
(8.23127 0.396454 0)
(8.14692 0.377776 0)
(8.06588 0.360136 0)
(7.98801 0.343456 0)
(7.91318 0.327664 0)
(7.8413 0.312695 0)
(7.77224 0.29849 0)
(7.70589 0.284994 0)
(7.64216 0.272156 0)
(7.58095 0.25993 0)
(7.52216 0.248271 0)
(7.46571 0.237142 0)
(7.41151 0.226503 0)
(7.35948 0.216321 0)
(7.30954 0.206564 0)
(7.26163 0.197202 0)
(7.21568 0.188206 0)
(7.17162 0.179551 0)
(7.12939 0.171211 0)
(7.08894 0.163162 0)
(7.05021 0.155383 0)
(7.01316 0.147853 0)
(6.97774 0.14055 0)
(6.9439 0.133456 0)
(6.91162 0.126551 0)
(6.88084 0.119818 0)
(6.85154 0.113238 0)
(6.82368 0.106793 0)
(6.79725 0.100467 0)
(6.77221 0.0942408 0)
(6.74855 0.0880976 0)
(6.72625 0.0820189 0)
(6.70529 0.0759862 0)
(6.68566 0.06998 0)
(6.66735 0.0639799 0)
(6.65036 0.0579641 0)
(6.63469 0.0519091 0)
(6.62034 0.0457893 0)
(6.60732 0.0395764 0)
(6.59564 0.033239 0)
(6.58531 0.0267415 0)
(6.57636 0.0200433 0)
(6.56881 0.0130974 0)
(6.5627 0.00584903 0)
(6.55805 -0.0017666 0)
(6.55492 -0.00982675 0)
(6.55336 -0.0184247 0)
(6.55342 -0.0276741 0)
(6.55516 -0.0377149 0)
(6.55864 -0.0487208 0)
(6.56392 -0.0609086 0)
(6.57105 -0.0745507 0)
(6.58004 -0.0899885 0)
(6.59087 -0.107648 0)
(6.60341 -0.128053 0)
(6.61741 -0.151828 0)
(6.6324 -0.179679 0)
(6.6476 -0.212331 0)
(6.66187 -0.250379 0)
(6.67359 -0.294025 0)
(6.68088 -0.342695 0)
(6.68188 -0.394596 0)
(10.0055 0.173579 0)
(10.0768 0.525194 0)
(10.2204 0.858871 0)
(10.4186 1.15366 0)
(10.6449 1.3985 0)
(10.8767 1.58925 0)
(11.0959 1.72648 0)
(11.2884 1.81439 0)
(11.4455 1.85947 0)
(11.563 1.86926 0)
(11.6406 1.85129 0)
(11.6802 1.81249 0)
(11.6857 1.75886 0)
(11.6615 1.69531 0)
(11.6122 1.6257 0)
(11.5424 1.55302 0)
(11.4561 1.47943 0)
(11.3569 1.4065 0)
(11.248 1.33532 0)
(11.132 1.2666 0)
(11.0111 1.20077 0)
(10.8871 1.13809 0)
(10.7614 1.07866 0)
(10.6352 1.02248 0)
(10.5094 0.969475 0)
(10.3848 0.919551 0)
(10.2619 0.872566 0)
(10.1413 0.828371 0)
(10.0231 0.786806 0)
(9.90777 0.747712 0)
(9.79535 0.710931 0)
(9.686 0.676311 0)
(9.57979 0.643708 0)
(9.47676 0.612984 0)
(9.37692 0.58401 0)
(9.28025 0.556665 0)
(9.18673 0.530835 0)
(9.0963 0.506416 0)
(9.00892 0.48331 0)
(8.92452 0.461426 0)
(8.84303 0.44068 0)
(8.76439 0.420995 0)
(8.6885 0.402298 0)
(8.61531 0.384522 0)
(8.54474 0.367605 0)
(8.4767 0.351489 0)
(8.41112 0.336121 0)
(8.34794 0.32145 0)
(8.28707 0.30743 0)
(8.22846 0.294018 0)
(8.17202 0.281173 0)
(8.11771 0.268857 0)
(8.06544 0.257035 0)
(8.01518 0.245672 0)
(7.96685 0.234739 0)
(7.9204 0.224204 0)
(7.87578 0.21404 0)
(7.83294 0.20422 0)
(7.79184 0.194719 0)
(7.75243 0.185512 0)
(7.71467 0.176575 0)
(7.67852 0.167888 0)
(7.64394 0.159427 0)
(7.61091 0.151171 0)
(7.57938 0.143099 0)
(7.54934 0.135191 0)
(7.52075 0.127427 0)
(7.4936 0.119786 0)
(7.46786 0.112246 0)
(7.44352 0.104788 0)
(7.42056 0.0973888 0)
(7.39897 0.0900264 0)
(7.37874 0.082677 0)
(7.35987 0.0753154 0)
(7.34236 0.0679145 0)
(7.3262 0.0604451 0)
(7.3114 0.052875 0)
(7.29797 0.0451687 0)
(7.28591 0.0372862 0)
(7.27526 0.0291823 0)
(7.26601 0.0208054 0)
(7.25821 0.0120959 0)
(7.25187 0.00298428 0)
(7.24703 -0.00661134 0)
(7.24371 -0.0167879 0)
(7.24196 -0.0276613 0)
(7.24181 -0.0393708 0)
(7.24328 -0.0520851 0)
(7.24639 -0.0660081 0)
(7.25113 -0.0813868 0)
(7.25747 -0.0985188 0)
(7.26531 -0.117758 0)
(7.27445 -0.139514 0)
(7.2846 -0.164248 0)
(7.29527 -0.192436 0)
(7.30574 -0.22451 0)
(7.31503 -0.260745 0)
(7.32194 -0.301083 0)
(7.32512 -0.344916 0)
(7.32336 -0.390885 0)
(10.004 0.142126 0)
(10.0556 0.430959 0)
(10.1623 0.710527 0)
(10.3151 0.966376 0)
(10.4981 1.18955 0)
(10.6962 1.37539 0)
(10.8963 1.52229 0)
(11.0866 1.63118 0)
(11.2581 1.70491 0)
(11.4048 1.74752 0)
(11.5232 1.76366 0)
(11.6121 1.75806 0)
(11.6721 1.73524 0)
(11.7051 1.69926 0)
(11.7133 1.65362 0)
(11.6998 1.60123 0)
(11.6674 1.54445 0)
(11.6191 1.48514 0)
(11.5574 1.42475 0)
(11.4849 1.36436 0)
(11.4037 1.30477 0)
(11.3157 1.24655 0)
(11.2224 1.1901 0)
(11.1254 1.13568 0)
(11.0258 1.08344 0)
(10.9245 1.03346 0)
(10.8223 0.985773 0)
(10.72 0.940345 0)
(10.6181 0.897134 0)
(10.5171 0.85607 0)
(10.4173 0.817071 0)
(10.319 0.780047 0)
(10.2225 0.744903 0)
(10.1279 0.711544 0)
(10.0353 0.679873 0)
(9.94497 0.649797 0)
(9.85687 0.621224 0)
(9.77106 0.594068 0)
(9.68758 0.568244 0)
(9.60645 0.543674 0)
(9.52766 0.52028 0)
(9.45121 0.497993 0)
(9.37707 0.476744 0)
(9.30523 0.456471 0)
(9.23563 0.437113 0)
(9.16826 0.418614 0)
(9.10307 0.400921 0)
(9.04002 0.383985 0)
(8.97907 0.367758 0)
(8.92017 0.352197 0)
(8.86327 0.337259 0)
(8.80835 0.322906 0)
(8.75534 0.309099 0)
(8.70421 0.295805 0)
(8.65492 0.282989 0)
(8.60742 0.27062 0)
(8.56167 0.258668 0)
(8.51764 0.247104 0)
(8.47528 0.2359 0)
(8.43457 0.225029 0)
(8.39547 0.214467 0)
(8.35795 0.204188 0)
(8.32198 0.194167 0)
(8.28752 0.184382 0)
(8.25456 0.17481 0)
(8.22307 0.165426 0)
(8.19302 0.156209 0)
(8.16441 0.147135 0)
(8.1372 0.138181 0)
(8.1114 0.129323 0)
(8.08697 0.120537 0)
(8.06392 0.111798 0)
(8.04223 0.103079 0)
(8.02189 0.0943524 0)
(8.00292 0.0855877 0)
(7.9853 0.0767528 0)
(7.96904 0.0678124 0)
(7.95414 0.0587277 0)
(7.94061 0.0494555 0)
(7.92846 0.0399475 0)
(7.9177 0.0301488 0)
(7.90836 0.0199969 0)
(7.90044 0.00942007 0)
(7.89396 -0.00166507 0)
(7.88894 -0.0133555 0)
(7.8854 -0.0257647 0)
(7.88334 -0.0390263 0)
(7.88277 -0.0532973 0)
(7.88366 -0.0687622 0)
(7.88597 -0.0856366 0)
(7.88962 -0.10417 0)
(7.89447 -0.124645 0)
(7.9003 -0.147371 0)
(7.90679 -0.172673 0)
(7.91347 -0.200853 0)
(7.91974 -0.232146 0)
(7.9248 -0.266633 0)
(7.92774 -0.304135 0)
(7.92761 -0.344089 0)
(7.9236 -0.38547 0)
(10.003 0.118966 0)
(10.0416 0.360647 0)
(10.1226 0.597183 0)
(10.2413 0.81859 0)
(10.3879 1.01803 0)
(10.5528 1.19138 0)
(10.7268 1.33647 0)
(10.9012 1.45287 0)
(11.0682 1.54152 0)
(11.222 1.60439 0)
(11.3581 1.64407 0)
(11.4738 1.66355 0)
(11.5677 1.66589 0)
(11.6397 1.65409 0)
(11.6904 1.63093 0)
(11.721 1.59889 0)
(11.7333 1.56012 0)
(11.7291 1.51647 0)
(11.7103 1.46945 0)
(11.6787 1.4203 0)
(11.6364 1.37 0)
(11.5847 1.31933 0)
(11.5255 1.26889 0)
(11.4599 1.21915 0)
(11.3892 1.17043 0)
(11.3144 1.12299 0)
(11.2366 1.077 0)
(11.1565 1.03256 0)
(11.0748 0.989735 0)
(10.9921 0.948562 0)
(10.9089 0.909041 0)
(10.8256 0.871153 0)
(10.7426 0.834866 0)
(10.6603 0.800136 0)
(10.5787 0.766913 0)
(10.4983 0.73514 0)
(10.419 0.704759 0)
(10.3411 0.675707 0)
(10.2648 0.647925 0)
(10.19 0.621352 0)
(10.1168 0.595927 0)
(10.0453 0.571593 0)
(9.9756 0.548292 0)
(9.90764 0.525971 0)
(9.84145 0.504577 0)
(9.77705 0.484059 0)
(9.71445 0.464369 0)
(9.65362 0.44546 0)
(9.59457 0.42729 0)
(9.53728 0.409816 0)
(9.48173 0.392997 0)
(9.4279 0.376796 0)
(9.37578 0.361175 0)
(9.32533 0.346101 0)
(9.27654 0.331538 0)
(9.22938 0.317456 0)
(9.18383 0.303822 0)
(9.13987 0.290609 0)
(9.09746 0.277786 0)
(9.05658 0.265326 0)
(9.01722 0.253203 0)
(8.97935 0.24139 0)
(8.94294 0.229861 0)
(8.90798 0.218591 0)
(8.87446 0.207556 0)
(8.84234 0.19673 0)
(8.81161 0.186089 0)
(8.78227 0.175609 0)
(8.75429 0.165263 0)
(8.72767 0.155026 0)
(8.70239 0.144872 0)
(8.67845 0.134773 0)
(8.65583 0.124701 0)
(8.63454 0.114626 0)
(8.61458 0.104514 0)
(8.59593 0.094332 0)
(8.57861 0.0840418 0)
(8.56261 0.0736024 0)
(8.54794 0.0629686 0)
(8.53461 0.0520901 0)
(8.52262 0.0409105 0)
(8.51198 0.0293664 0)
(8.50269 0.0173856 0)
(8.49477 0.00488622 0)
(8.48822 -0.0082259 0)
(8.48303 -0.0220585 0)
(8.47919 -0.0367355 0)
(8.47668 -0.0523987 0)
(8.47546 -0.0692097 0)
(8.47545 -0.0873511 0)
(8.47654 -0.107025 0)
(8.47859 -0.128451 0)
(8.48135 -0.151853 0)
(8.48451 -0.17745 0)
(8.48768 -0.205421 0)
(8.49031 -0.235871 0)
(8.4918 -0.268771 0)
(8.49146 -0.303893 0)
(8.4886 -0.340747 0)
(8.48269 -0.378551 0)
(10.0023 0.101332 0)
(10.0321 0.306837 0)
(10.095 0.509214 0)
(10.1884 0.701447 0)
(10.3061 0.8784 0)
(10.442 1.03667 0)
(10.5899 1.17418 0)
(10.7434 1.29004 0)
(10.8967 1.38432 0)
(11.0446 1.45784 0)
(11.183 1.51198 0)
(11.3088 1.5485 0)
(11.4198 1.56936 0)
(11.5146 1.5766 0)
(11.5928 1.57226 0)
(11.6544 1.55825 0)
(11.7 1.53635 0)
(11.7304 1.50815 0)
(11.7467 1.47505 0)
(11.7503 1.43824 0)
(11.7423 1.39875 0)
(11.7241 1.35743 0)
(11.6969 1.31498 0)
(11.6618 1.27196 0)
(11.6201 1.22885 0)
(11.5726 1.186 0)
(11.5203 1.1437 0)
(11.464 1.10216 0)
(11.4044 1.06155 0)
(11.3423 1.02198 0)
(11.2782 0.983552 0)
(11.2125 0.946303 0)
(11.1458 0.91027 0)
(11.0783 0.875464 0)
(11.0106 0.841884 0)
(10.9427 0.809516 0)
(10.8751 0.778339 0)
(10.8078 0.748325 0)
(10.7412 0.719441 0)
(10.6753 0.691649 0)
(10.6102 0.664913 0)
(10.5462 0.639191 0)
(10.4832 0.614442 0)
(10.4214 0.590626 0)
(10.3608 0.5677 0)
(10.3015 0.545626 0)
(10.2435 0.524361 0)
(10.1869 0.503868 0)
(10.1316 0.484108 0)
(10.0777 0.465044 0)
(10.0253 0.44664 0)
(9.97419 0.428861 0)
(9.92453 0.411673 0)
(9.87629 0.395043 0)
(9.82946 0.37894 0)
(9.78403 0.363332 0)
(9.74 0.34819 0)
(9.69737 0.333485 0)
(9.65611 0.319187 0)
(9.61623 0.30527 0)
(9.57771 0.291707 0)
(9.54054 0.27847 0)
(9.50471 0.265534 0)
(9.4702 0.252873 0)
(9.43702 0.24046 0)
(9.40514 0.228271 0)
(9.37456 0.21628 0)
(9.34527 0.20446 0)
(9.31727 0.192786 0)
(9.29054 0.181229 0)
(9.26507 0.169763 0)
(9.24087 0.158359 0)
(9.21794 0.146985 0)
(9.19626 0.135611 0)
(9.17583 0.124203 0)
(9.15666 0.112725 0)
(9.13875 0.101137 0)
(9.12209 0.0893979 0)
(9.1067 0.0774608 0)
(9.09256 0.0652749 0)
(9.07969 0.0527839 0)
(9.06808 0.0399248 0)
(9.05774 0.0266273 0)
(9.04866 0.0128126 0)
(9.04083 -0.00160812 0)
(9.03423 -0.0167345 0)
(9.02885 -0.0326785 0)
(9.02463 -0.0495649 0)
(9.02153 -0.0675317 0)
(9.01944 -0.0867292 0)
(9.01825 -0.107317 0)
(9.01779 -0.12946 0)
(9.01784 -0.153315 0)
(9.01811 -0.179021 0)
(9.01825 -0.206672 0)
(9.01783 -0.236291 0)
(9.01635 -0.267789 0)
(9.01331 -0.300931 0)
(9.00822 -0.335299 0)
(9.00069 -0.370289 0)
(10.0018 0.0875246 0)
(10.0254 0.26467 0)
(10.0752 0.439728 0)
(10.1498 0.607645 0)
(10.2452 0.764541 0)
(10.3573 0.907683 0)
(10.4818 1.03526 0)
(10.6143 1.1463 0)
(10.7505 1.2405 0)
(10.8863 1.31815 0)
(11.0182 1.37993 0)
(11.1433 1.42685 0)
(11.2594 1.46013 0)
(11.3646 1.48109 0)
(11.4577 1.49116 0)
(11.5383 1.49173 0)
(11.606 1.48414 0)
(11.661 1.46968 0)
(11.7036 1.44952 0)
(11.7346 1.4247 0)
(11.7546 1.39617 0)
(11.7645 1.36475 0)
(11.7652 1.33114 0)
(11.7575 1.29595 0)
(11.7423 1.25968 0)
(11.7204 1.22277 0)
(11.6928 1.18557 0)
(11.6599 1.14837 0)
(11.6227 1.11139 0)
(11.5817 1.07484 0)
(11.5375 1.03886 0)
(11.4905 1.00356 0)
(11.4414 0.969031 0)
(11.3905 0.935339 0)
(11.3381 0.902528 0)
(11.2847 0.870627 0)
(11.2305 0.839651 0)
(11.1757 0.809608 0)
(11.1207 0.780493 0)
(11.0656 0.752299 0)
(11.0107 0.725009 0)
(10.956 0.698604 0)
(10.9017 0.673063 0)
(10.8479 0.648361 0)
(10.7947 0.62447 0)
(10.7423 0.601362 0)
(10.6907 0.57901 0)
(10.6399 0.557382 0)
(10.5901 0.53645 0)
(10.5412 0.516183 0)
(10.4934 0.496552 0)
(10.4466 0.477528 0)
(10.4009 0.45908 0)
(10.3562 0.441181 0)
(10.3127 0.423801 0)
(10.2703 0.406913 0)
(10.2291 0.390489 0)
(10.189 0.374503 0)
(10.15 0.358926 0)
(10.1123 0.343734 0)
(10.0757 0.328899 0)
(10.0402 0.314396 0)
(10.006 0.300199 0)
(9.97287 0.286283 0)
(9.94094 0.272622 0)
(9.91017 0.259189 0)
(9.88058 0.24596 0)
(9.85214 0.232907 0)
(9.82487 0.220004 0)
(9.79876 0.207224 0)
(9.77381 0.194536 0)
(9.75002 0.181913 0)
(9.72739 0.169324 0)
(9.70592 0.156734 0)
(9.68561 0.144111 0)
(9.66646 0.131418 0)
(9.64847 0.118614 0)
(9.63165 0.105658 0)
(9.61599 0.0925033 0)
(9.60149 0.0790995 0)
(9.58815 0.0653913 0)
(9.57597 0.0513179 0)
(9.56494 0.0368123 0)
(9.55504 0.0218003 0)
(9.54628 0.00619993 0)
(9.5386 -0.0100789 0)
(9.53199 -0.0271351 0)
(9.52638 -0.0450761 0)
(9.52171 -0.064017 0)
(9.51788 -0.0840787 0)
(9.51476 -0.105384 0)
(9.51219 -0.128053 0)
(9.50996 -0.15219 0)
(9.50782 -0.177877 0)
(9.50546 -0.20515 0)
(9.50253 -0.233982 0)
(9.49866 -0.264257 0)
(9.49345 -0.29575 0)
(9.48655 -0.328109 0)
(9.47769 -0.36086 0)
(10.0015 0.0764595 0)
(10.0206 0.230918 0)
(10.0608 0.383868 0)
(10.1213 0.53157 0)
(10.1995 0.671052 0)
(10.2924 0.800124 0)
(10.3972 0.917253 0)
(10.5107 1.02151 0)
(10.6297 1.11249 0)
(10.7512 1.19021 0)
(10.8723 1.25498 0)
(10.9908 1.3074 0)
(11.1043 1.3482 0)
(11.2112 1.37827 0)
(11.3101 1.39854 0)
(11.4001 1.41002 0)
(11.4805 1.41368 0)
(11.551 1.4105 0)
(11.6114 1.40139 0)
(11.662 1.38723 0)
(11.7029 1.36881 0)
(11.7347 1.34685 0)
(11.7578 1.322 0)
(11.7729 1.29484 0)
(11.7804 1.26586 0)
(11.781 1.23552 0)
(11.7754 1.20419 0)
(11.7641 1.17219 0)
(11.7478 1.13979 0)
(11.7269 1.10723 0)
(11.702 1.0747 0)
(11.6737 1.04237 0)
(11.6422 1.01035 0)
(11.6081 0.978754 0)
(11.5717 0.94767 0)
(11.5335 0.917162 0)
(11.4936 0.887279 0)
(11.4524 0.858059 0)
(11.4102 0.829528 0)
(11.3671 0.801703 0)
(11.3235 0.774592 0)
(11.2794 0.748198 0)
(11.2351 0.722519 0)
(11.1907 0.697546 0)
(11.1464 0.67327 0)
(11.1022 0.649675 0)
(11.0584 0.626746 0)
(11.0148 0.604465 0)
(10.9718 0.582811 0)
(10.9293 0.561764 0)
(10.8874 0.541303 0)
(10.8461 0.521404 0)
(10.8055 0.502044 0)
(10.7657 0.483201 0)
(10.7267 0.46485 0)
(10.6885 0.446967 0)
(10.6512 0.42953 0)
(10.6148 0.412514 0)
(10.5792 0.395894 0)
(10.5446 0.379647 0)