/*--------------------------------*- C++ -*----------------------------------*\
| =========                 |                                                 |
| \\      /  F ield         | OpenFOAM: The Open Source CFD Toolbox           |
|  \\    /   O peration     | Version:  2406                                  |
|   \\  /    A nd           | Website:  www.openfoam.com                      |
|    \\/     M anipulation  |                                                 |
\*---------------------------------------------------------------------------*/
FoamFile
{
    version     2.0;
    format      ascii;
    arch        "LSB;label=32;scalar=64";
    class       volScalarField;
    location    "300";
    object      p;
}
// * * * * * * * * * * * * * * * * * * * * * * * * * * * * * * * * * * * * * //

dimensions      [0 2 -2 0 0 0 0];

internalField   nonuniform List<scalar> 
150000
(
236.648
129.508
72.5185
49.2308
35.8762
27.0632
21.295
17.3209
14.3723
12.0641
10.188
8.61792
7.27317
6.10053
5.06312
4.13433
3.29436
2.52809
1.82371
1.17185
0.564935
-0.00320707
-0.537684
-1.04276
-1.52202
-1.97852
-2.41485
-2.83326
-3.2357
-3.62385
-3.9992
-4.36304
-4.71653
-5.06069
-5.39643
-5.72457
-6.04583
-6.36087
-6.67028
-6.97462
-7.27436
-7.56996
-7.86181
-8.15031
-8.4358
-8.71859
-8.99899
-9.27726
-9.55367
-9.82846
-10.1018
-10.374
-10.6453
-10.9157
-11.1855
-11.4549
-11.724
-11.9929
-12.262
-12.5312
-12.8008
-13.0709
-13.3417
-13.6132
-13.8857
-14.1592
-14.434
-14.7102
-14.9879
-15.2673
-15.5486
-15.8319
-16.1174
-16.4053
-16.6958
-16.9891
-17.2854
-17.585
-17.8881
-18.195
-18.506
-18.8214
-19.1417
-19.4671
-19.7982
-20.1355
-20.4795
-20.8309
-21.1903
-21.5585
-21.9364
-22.3251
-22.726
-23.1414
-23.5762
-24.0429
-24.5675
-25.1743
-25.9329
-27.795
135.814
96.1875
66.5935
50.0125
38.5958
30.1476
24.1073
19.7185
16.381
13.7475
11.6099
9.83152
8.32028
7.01321
5.86595
4.84633
3.93037
3.09984
2.34059
1.64146
0.993507
0.389474
-0.176595
-0.709641
-1.2138
-1.69257
-2.14892
-2.58541
-3.00421
-3.40724
-3.79617
-4.17243
-4.53733
-4.89199
-5.23742
-5.57452
-5.90409
-6.22685
-6.54347
-6.85452
-7.16054
-7.46202
-7.7594
-8.0531
-8.34348
-8.63089
-8.91565
-9.19805
-9.47838
-9.75689
-10.0338
-10.3094
-10.5838
-10.8573
-11.1301
-11.4023
-11.6741
-11.9457
-12.2173
-12.489
-12.761
-13.0334
-13.3064
-13.5801
-13.8547
-14.1304
-14.4072
-14.6855
-14.9652
-15.2466
-15.5299
-15.8152
-16.1027
-16.3926
-16.6852
-16.9806
-17.279
-17.5808
-17.8862
-18.1955
-18.509
-18.8272
-19.1503
-19.4789
-19.8134
-20.1545
-20.5027
-20.859
-21.2242
-21.5994
-21.9861
-22.3861
-22.802
-23.2375
-23.699
-24.1978
-24.7513
-25.3858
-26.2031
-27.5644
87.2889
76.0564
61.4079
49.2652
39.6523
32.0255
26.1492
21.6346
18.0921
15.2491
12.9218
10.9799
9.33037
7.90697
6.66166
5.55896
4.57214
3.68074
2.86884
2.12387
1.43575
0.796309
0.19886
-0.362139
-0.891317
-1.39258
-1.86922
-2.32409
-2.75961
-3.1779
-3.58077
-3.96985
-4.34653
-4.71206
-5.06754
-5.41396
-5.75219
-6.08302
-6.40715
-6.72523
-7.03784
-7.34549
-7.64868
-7.94784
-8.24337
-8.53564
-8.825
-9.11177
-9.39624
-9.67867
-9.95934
-10.2385
-10.5163
-10.7931
-11.069
-11.3442
-11.6189
-11.8933
-12.1675
-12.4418
-12.7162
-12.9911
-13.2664
-13.5424
-13.8193
-14.0971
-14.3761
-14.6565
-14.9383
-15.2218
-15.5071
-15.7944
-16.084
-16.376
-16.6706
-16.9681
-17.2687
-17.5727
-17.8803
-18.192
-18.5079
-18.8286
-19.1545
-19.4859
-19.8236
-20.1682
-20.5203
-20.881
-21.2512
-21.6325
-22.0264
-22.4354
-22.8624
-23.3119
-23.7899
-24.3048
-24.8669
-25.4863
-26.1828
-26.9852
66.6548
63.0101
54.7872
46.0201
38.4393
32.069
26.8185
22.5539
19.0806
16.2211
13.8381
11.8261
10.1046
8.61269
7.30466
6.14553
5.10837
4.1722
3.32049
2.54006
1.82028
1.15251
0.529606
-0.0543255
-0.604235
-1.12429
-1.61804
-2.08851
-2.53831
-2.96968
-3.3846
-3.78478
-4.17172
-4.54676
-4.91107
-5.26569
-5.61156
-5.94953
-6.28034
-6.60468
-6.92315
-7.23633
-7.54471
-7.84877
-8.14892
-8.44557
-8.73907
-9.02977
-9.31796
-9.60394
-9.88798
-10.1703
-10.4513
-10.731
-11.0096
-11.2875
-11.5648
-11.8417
-12.1183
-12.3949
-12.6716
-12.9486
-13.226
-13.504
-13.7829
-14.0626
-14.3435
-14.6257
-14.9093
-15.1945
-15.4816
-15.7706
-16.0619
-16.3556
-16.6519
-16.951
-17.2533
-17.559
-17.8684
-18.1818
-18.4995
-18.822
-19.1497
-19.4832
-19.8229
-20.1696
-20.524
-20.887
-21.2599
-21.6438
-22.0405
-22.4521
-22.8811
-23.3306
-23.8041
-24.3049
-24.8337
-25.3844
-25.9373
-26.448
54.0025
52.673
48.0107
42.0521
36.3576
31.2324
26.7343
22.8829
19.6206
16.8555
14.5002
12.4794
10.7307
9.20331
7.857
6.65976
5.58618
4.61597
3.73284
2.9236
2.17749
1.4857
0.84088
0.23694
-0.331262
-0.868069
-1.37718
-1.86177
-2.32457
-2.76794
-3.19396
-3.60441
-4.00089
-4.38479
-4.75735
-5.11967
-5.47275
-5.81745
-6.15458
-6.48485
-6.8089
-7.12732
-7.44065
-7.74938
-8.05395
-8.35477
-8.65224
-8.94668
-9.23844
-9.52782
-9.81509
-10.1005
-10.3844
-10.6669
-10.9482
-11.2287
-11.5084
-11.7876
-12.0665
-12.3453
-12.6241
-12.9031
-13.1824
-13.4623
-13.743
-14.0245
-14.3071
-14.5909
-14.8761
-15.1629
-15.4514
-15.742
-16.0346
-16.3297
-16.6274
-16.9279
-17.2315
-17.5384
-17.849
-18.1636
-18.4825
-18.8061
-19.1349
-19.4694
-19.81
-20.1575
-20.5125
-20.8759
-21.2487
-21.6319
-22.027
-22.4353
-22.8583
-23.2972
-23.7525
-24.2227
-24.7016
-25.1746
-25.6131
-25.9687
45.3038
44.855
42.1868
38.1935
33.9784
29.9228
26.1638
22.7886
19.8168
17.2201
14.9545
12.9742
11.236
9.7017
8.33863
7.11953
6.02184
5.027
4.11969
3.28727
2.51925
1.80693
1.14298
0.521275
-0.0634025
-0.615478
-1.13874
-1.63645
-2.11142
-2.5661
-3.00262
-3.42286
-3.82847
-4.22088
-4.60141
-4.97118
-5.33124
-5.6825
-6.02578
-6.36184
-6.69135
-7.01491
-7.3331
-7.64642
-7.95533
-8.26026
-8.56162
-8.85976
-9.15503
-9.44774
-9.73818
-10.0266
-10.3134
-10.5986
-10.8826
-11.1655
-11.4477
-11.7292
-12.0102
-12.2911
-12.5719
-12.8528
-13.134
-13.4156
-13.698
-13.9811
-14.2652
-14.5505
-14.8371
-15.1253
-15.4151
-15.7069
-16.0008
-16.2969
-16.5956
-16.8971
-17.2016
-17.5094
-17.8207
-18.1359
-18.4553
-18.7793
-19.1083
-19.4427
-19.783
-20.1298
-20.4837
-20.8454
-21.2155
-21.5948
-21.9842
-22.3841
-22.7949
-23.216
-23.6455
-24.0784
-24.5053
-24.9091
-25.2627
-25.5271
39.1203
38.9921
37.3766
34.6447
31.5201
28.3377
25.2476
22.3545
19.7135
17.3354
15.2085
13.3115
11.6192
10.1061
8.74835
7.52446
6.41587
5.40658
4.48298
3.6335
2.84835
2.11924
1.43912
0.801981
0.202682
-0.363182
-0.899409
-1.40928
-1.89566
-2.36103
-2.80757
-3.2372
-3.6516
-4.05228
-4.44056
-4.81762
-5.18453
-5.54224
-5.8916
-6.23338
-6.5683
-6.89697
-7.21998
-7.53786
-7.8511
-8.16013
-8.46537
-8.7672
-9.06596
-9.36199
-9.65559
-9.94705
-10.2366
-10.5246
-10.8112
-11.0966
-11.381
-11.6648
-11.948
-12.2308
-12.5135
-12.7963
-13.0792
-13.3626
-13.6464
-13.9311
-14.2166
-14.5032
-14.791
-15.0803
-15.3713
-15.664
-15.9588
-16.2558
-16.5552
-16.8572
-17.1622
-17.4703
-17.7818
-18.097
-18.4162
-18.7398
-19.068
-19.4013
-19.74
-20.0847
-20.4357
-20.7935
-21.1584
-21.5309
-21.9111
-22.2988
-22.6931
-23.0921
-23.4922
-23.8868
-24.2654
-24.6118
-24.9034
-25.1121
34.4736
34.4444
33.396
31.473
29.1365
26.6414
24.1207
21.6744
19.3679
17.2321
15.2755
13.4943
11.8778
10.4117
9.08074
7.86962
6.76421
5.75171
4.8207
3.9612
3.16448
2.42298
1.73015
1.08033
0.468591
-0.109331
-0.657151
-1.17811
-1.67503
-2.15041
-2.60644
-3.04504
-3.46792
-3.87661
-4.27246
-4.65667
-5.03034
-5.39443
-5.74983
-6.09733
-6.43764
-6.77143
-7.09928
-7.42175
-7.73934
-8.0525
-8.36165
-8.66719
-8.96948
-9.26886
-9.56564
-9.86011
-10.1526
-10.4432
-10.7324
-11.0203
-11.3071
-11.593
-11.8783
-12.1631
-12.4477
-12.7322
-13.0168
-13.3017
-13.587
-13.873
-14.1598
-14.4476
-14.7365
-15.0267
-15.3185
-15.612
-15.9074
-16.2048
-16.5046
-16.8068
-17.1118
-17.4197
-17.7308
-18.0454
-18.3637
-18.6859
-19.0125
-19.3436
-19.6795
-20.0206
-20.3671
-20.7191
-21.0768
-21.4401
-21.8085
-22.1812
-22.5564
-22.9314
-23.3016
-23.6599
-23.9962
-24.2965
-24.5432
-24.7167
30.8092
30.8054
30.0822
28.6875
26.9148
24.9469
22.8918
20.836
18.8429
16.9504
15.1777
13.532
12.013
10.615
9.32981
8.14807
7.05997
6.05602
5.12733
4.26574
3.46391
2.71526
2.01396
1.35487
0.733445
0.145678
-0.411956
-0.942566
-1.4489
-1.93338
-2.39817
-2.84518
-3.2761
-3.69247
-4.09563
-4.4868
-4.86709
-5.23748
-5.59886
-5.95203
-6.29775
-6.63666
-6.96938
-7.29648
-7.61845
-7.93578
-8.2489
-8.5582
-8.86406
-9.16683
-9.46683
-9.76436
-10.0597
-10.3531
-10.6449
-10.9352
-11.2243
-11.5125
-11.7998
-12.0866
-12.373
-12.6592
-12.9454
-13.2318
-13.5185
-13.8057
-14.0936
-14.3824
-14.6722
-14.9632
-15.2556
-15.5495
-15.8452
-16.1428
-16.4426
-16.7446
-17.0491
-17.3564
-17.6666
-17.9799
-18.2965
-18.6167
-18.9406
-19.2685
-19.6005
-19.9367
-20.2772
-20.622
-20.9707
-21.323
-21.6779
-22.0341
-22.3892
-22.74
-23.0816
-23.4072
-23.7076
-23.9715
-24.1854
-24.336
27.8221
27.8223
27.2975
26.2553
24.8862
23.3186
21.6362
19.9101
18.1963
16.5331
14.9437
13.4416
12.0325
10.7171
9.49261
8.35433
7.29635
6.31229
5.39572
4.54042
3.74055
2.99069
2.28587
1.62163
0.993914
0.399111
-0.166023
-0.704387
-1.21857
-1.71089
-2.1834
-2.63798
-3.07626
-3.49976
-3.9098
-4.3076
-4.69425
-5.07073
-5.43795
-5.7967
-6.14774
-6.49174
-6.82932
-7.16103
-7.48741
-7.80894
-8.12604
-8.43914
-8.74862
-9.05482
-9.35807
-9.65869
-9.95696
-10.2532
-10.5475
-10.8403
-11.1318
-11.4221
-11.7115
-12.0003
-12.2884
-12.5763
-12.864
-13.1518
-13.4398
-13.7281
-14.017
-14.3066
-14.5971
-14.8887
-15.1815
-15.4756
-15.7714
-16.0688
-16.3682
-16.6696
-16.9733
-17.2794
-17.588
-17.8995
-18.2138
-18.5311
-18.8517
-19.1754
-19.5025
-19.8328
-20.1662
-20.5025
-20.8411
-21.1813
-21.5217
-21.8608
-22.1959
-22.5235
-22.8388
-23.1357
-23.4063
-23.6415
-23.8314
-23.9667
25.328
25.3269
24.9301
24.1293
23.0522
21.7888
20.4021
18.949
17.477
16.0209
14.6051
13.2451
11.9503
10.7254
9.57139
8.48702
7.4695
6.51511
5.61963
4.77868
3.98787
3.24298
2.54
1.87519
1.24511
0.646609
0.0767965
-0.466938
-0.986963
-1.48542
-1.96426
-2.42522
-2.86989
-3.2997
-3.71595
-4.11982
-4.51238
-4.89459
-5.26734
-5.63144
-5.98762
-6.33657
-6.67888
-7.01514
-7.34587
-7.67155
-7.99263
-8.30952
-8.6226
-8.93223
-9.23875
-9.54247
-9.84367
-10.1426
-10.4397
-10.7349
-11.0287
-11.3212
-11.6127
-11.9033
-12.1932
-12.4827
-12.7718
-13.0609
-13.35
-13.6394
-13.9292
-14.2195
-14.5105
-14.8025
-15.0954
-15.3896
-15.6851
-15.9821
-16.2807
-16.5812
-16.8836
-17.188
-17.4947
-17.8037
-18.1151
-18.429
-18.7454
-19.0643
-19.3856
-19.7091
-20.0346
-20.3616
-20.6893
-21.0168
-21.3425
-21.6646
-21.9804
-22.2864
-22.5783
-22.8505
-23.0965
-23.3093
-23.4813
-23.6062
23.2069
23.204
22.894
22.2635
21.4011
20.3702
19.2179
17.9888
16.7222
15.4488
14.1914
12.9661
11.7841
10.6519
9.5733
8.54934
7.57958
6.66239
5.7954
4.9758
4.20054
3.46652
2.77066
2.11
1.48171
0.883136
0.311814
-0.234541
-0.758031
-1.26059
-1.74397
-2.20981
-2.65956
-3.09458
-3.5161
-3.92524
-4.32302
-4.71039
-5.0882
-5.45723
-5.81822
-6.17182
-6.51865
-6.85926
-7.19418
-7.52389
-7.84883
-8.16942
-8.48604
-8.79905
-9.10879
-9.41556
-9.71968
-10.0214
-10.321
-10.6187
-10.9148
-11.2094
-11.5029
-11.7953
-12.0869
-12.3779
-12.6685
-12.9588
-13.249
-13.5392
-13.8297
-14.1206
-14.412
-14.7041
-14.997
-15.2909
-15.5859
-15.8822
-16.1798
-16.4789
-16.7797
-17.0821
-17.3863
-17.6924
-18.0003
-18.3102
-18.6219
-18.9353
-19.2503
-19.5665
-19.8835
-20.2007
-20.5172
-20.8318
-21.143
-21.4488
-21.7466
-22.033
-22.3042
-22.5554
-22.7814
-22.9765
-23.1352
-23.2531
21.3771
21.373
21.1246
20.6176
19.9158
19.0644
18.0983
17.0526
15.9591
14.8441
13.7283
12.6271
11.5521
10.5109
9.50865
8.54811
7.63041
6.75549
5.92242
5.12968
4.37537
3.65737
2.97345
2.32136
1.6989
1.1039
0.534345
-0.0117113
-0.536074
-1.04043
-1.52635
-1.99528
-2.44856
-2.88743
-3.31303
-3.7264
-4.12851
-4.52024
-4.90243
-5.27581
-5.6411
-5.99892
-6.34988
-6.69452
-7.03335
-7.36684
-7.69544
-8.01956
-8.33956
-8.65581
-8.96865
-9.27838
-9.5853
-9.88968
-10.1918
-10.4919
-10.7902
-11.0869
-11.3822
-11.6764
-11.9696
-12.2621
-12.5539
-12.8453
-13.1365
-13.4275
-13.7186
-14.0098
-14.3014
-14.5935
-14.8862
-15.1796
-15.4739
-15.7691
-16.0654
-16.3629
-16.6617
-16.9617
-17.2631
-17.5658
-17.8699
-18.1753
-18.4819
-18.7894
-19.0976
-19.406
-19.7142
-20.0215
-20.3267
-20.6288
-20.9261
-21.2165
-21.4977
-21.7667
-22.02
-22.2536
-22.4631
-22.6443
-22.7931
-22.9062
19.7805
19.7757
19.5726
19.1576
18.5779
17.8666
17.0495
16.1539
15.2058
14.2271
13.2362
12.2472
11.2713
10.3167
9.38905
8.49218
7.62831
6.79848
6.00283
5.24085
4.51157
3.81369
3.14573
2.50608
1.89307
1.30505
0.740387
0.197501
-0.32512
-0.828909
-1.31522
-1.78533
-2.24042
-2.68159
-3.10989
-3.52627
-3.93162
-4.32677
-4.71248
-5.08946
-5.45837
-5.81982
-6.17438
-6.52259
-6.86492
-7.20185
-7.53379
-7.86114
-8.18428
-8.50355
-8.81929
-9.13179
-9.44136
-9.74825
-10.0527
-10.355
-10.6554
-10.9541
-11.2512
-11.547
-11.8418
-12.1355
-12.4285
-12.7209
-13.0128
-13.3045
-13.596
-13.8875
-14.1791
-14.471
-14.7632
-15.0559
-15.3492
-15.6432
-15.938
-16.2335
-16.53
-16.8273
-17.1256
-17.4247
-17.7246
-18.0251
-18.3262
-18.6275
-18.9287
-19.2293
-19.5286
-19.826
-20.1203
-20.4103
-20.6944
-20.9707
-21.237
-21.4905
-21.7284
-21.9471
-22.1434
-22.3137
-22.4549
-22.5649
18.3743
18.3693
18.2005
17.8554
17.3703
16.7695
16.0724
15.3003
14.4742
13.6124
12.7306
11.8419
10.9565
10.0825
9.22597
8.39113
7.58092
6.79713
6.0407
5.31187
4.61039
3.93563
3.28672
2.6626
2.06211
1.484
0.927028
0.389947
-0.128469
-0.629406
-1.114
-1.58335
-2.03847
-2.48034
-2.90988
-3.32793
-3.73532
-4.13278
-4.52103
-4.90071
-5.27245
-5.63682
-5.99435
-6.34553
-6.69085
-7.03073
-7.36558
-7.69579
-8.02172
-8.3437
-8.66205
-8.97707
-9.28904
-9.59822
-9.90488
-10.2092
-10.5115
-10.8119
-11.1107
-11.408
-11.7041
-11.999
-12.293
-12.5862
-12.8788
-13.1709
-13.4627
-13.7542
-14.0457
-14.3371
-14.6287
-14.9206
-15.2127
-15.5052
-15.7981
-16.0915
-16.3854
-16.6798
-16.9746
-17.2698
-17.5653
-17.8609
-18.1563
-18.4512
-18.7453
-19.038
-19.3286
-19.6163
-19.9001
-20.1787
-20.4506
-20.714
-20.967
-21.207
-21.4316
-21.6381
-21.8235
-21.9852
-22.1209
-22.2289
17.1261
17.1211
16.9789
16.6882
16.2774
15.7648
15.1652
14.4951
13.7715
13.0097
12.2232
11.4233
10.6197
9.81985
9.02984
8.25416
7.49611
6.75798
6.04122
5.34666
4.67458
4.0249
3.39722
2.79095
2.20534
1.63952
1.09258
0.563576
0.0515433
-0.444471
-0.9254
-1.39215
-1.84559
-2.28657
-2.71586
-3.13424
-3.5424
-3.94103
-4.33076
-4.71219
-5.08587
-5.45234
-5.81209
-6.16559
-6.51327
-6.85555
-7.1928
-7.5254
-7.85369
-8.17798
-8.49858
-8.81578
-9.12985
-9.44104
-9.7496
-10.0557
-10.3597
-10.6617
-10.9619
-11.2605
-11.5576
-11.8535
-12.1483
-12.4422
-12.7353
-13.0276
-13.3195
-13.6109
-13.902
-14.1929
-14.4837
-14.7744
-15.0651
-15.3559
-15.6468
-15.9379
-16.229
-16.5202
-16.8115
-17.1026
-17.3935
-17.6839
-17.9736
-18.2621
-18.5492
-18.8341
-19.1162
-19.3947
-19.6685
-19.9365
-20.1972
-20.449
-20.6901
-20.9185
-21.1319
-21.328
-21.5046
-21.6597
-21.7913
-21.8982
16.0109
16.0062
15.8849
15.6371
15.2855
14.8442
14.3243
13.739
13.1019
12.4258
11.722
11.0007
10.2704
9.53813
8.8097
8.08963
7.38139
6.68756
6.00997
5.34981
4.7078
4.08425
3.47917
2.89232
2.3233
1.77157
1.23651
0.717424
0.213594
-0.275721
-0.751266
-1.21378
-1.66398
-2.10257
-2.53023
-2.94761
-3.35533
-3.75398
-4.14413
-4.5263
-4.90101
-5.26873
-5.62992
-5.98499
-6.33436
-6.67841
-7.0175
-7.35195
-7.6821
-8.00825
-8.33069
-8.64968
-8.96548
-9.27834
-9.58848
-9.89612
-10.2015
-10.5047
-10.8061
-11.1057
-11.4038
-11.7005
-11.9959
-12.2902
-12.5835
-12.8759
-13.1677
-13.4587
-13.7493
-14.0394
-14.3291
-14.6186
-14.9077
-15.1967
-15.4854
-15.7739
-16.0621
-16.35
-16.6375
-16.9244
-17.2106
-17.4959
-17.7798
-18.0621
-18.3422
-18.6196
-18.8935
-19.1633
-19.4278
-19.686
-19.9366
-20.178
-20.4087
-20.627
-20.8308
-21.0184
-21.1879
-21.3377
-21.4664
-21.5729
15.009
15.0046
14.9001
14.6867
14.3828
13.9996
13.5456
13.0311
12.4673
11.8647
11.233
10.5809
9.91607
9.245
8.5731
7.90476
7.2435
6.59204
5.95241
5.32609
4.7141
4.11704
3.53523
2.96874
2.41744
1.88106
1.35922
0.851464
0.357275
-0.123899
-0.592631
-1.0495
-1.4951
-1.93
-2.35477
-2.76995
-3.17607
-3.57366
-3.9632
-4.34515
-4.71998
-5.0881
-5.44992
-5.80583
-6.1562
-6.50136
-6.84166
-7.17741
-7.50889
-7.8364
-8.1602
-8.48055
-8.79768
-9.11182
-9.42319
-9.73199
-10.0384
-10.3427
-10.6449
-10.9453
-11.244
-11.5412
-11.8369
-12.1314
-12.4248
-12.7171
-13.0085
-13.2991
-13.5889
-13.878
-14.1665
-14.4545
-14.7419
-15.0288
-15.3152
-15.601
-15.8861
-16.1706
-16.4543
-16.737
-17.0185
-17.2985
-17.5768
-17.8529
-18.1263
-18.3965
-18.6628
-18.9244
-19.1803
-19.4296
-19.671
-19.9032
-20.1248
-20.3343
-20.53
-20.7106
-20.8744
-21.0201
-21.1466
-21.2534
14.1046
14.1005
14.0097
13.8242
13.5593
13.224
12.8247
12.3697
11.8682
11.3288
10.7598
10.1687
9.56234
8.94649
8.32619
7.70566
7.08831
6.47691
5.87363
5.2801
4.69754
4.12679
3.56841
3.02269
2.48974
1.9695
1.46181
0.966393
0.482917
0.0109968
-0.44979
-0.899886
-1.33975
-1.76984
-2.19062
-2.60255
-3.00606
-3.4016
-3.78959
-4.17043
-4.54452
-4.91222
-5.27391
-5.62992
-5.98059
-6.32623
-6.66713
-7.00358
-7.33586
-7.66421
-7.98889
-8.31014
-8.62816
-8.94318
-9.25539
-9.56499
-9.87216
-10.1771
-10.4799
-10.7807
-11.0798
-11.3772
-11.6731
-11.9675
-12.2607
-12.5527
-12.8435
-13.1333
-13.4222
-13.7102
-13.9973
-14.2836
-14.5691
-14.8538
-15.1377
-15.4207
-15.7027
-15.9837
-16.2635
-16.542
-16.8188
-17.0937
-17.3665
-17.6366
-17.9036
-18.167
-18.426
-18.68
-18.928
-19.1692
-19.4023
-19.6264
-19.84
-20.042
-20.231
-20.4056
-20.5648
-20.7074
-20.8326
-20.9398
13.2849
13.2812
13.2015
13.0389
12.8063
12.5107
12.1573
11.7526
11.3042
10.8194
10.3051
9.76778
9.21342
8.64727
8.07393
7.49733
6.92078
6.34698
5.77816
5.21605
4.662
4.11701
3.58181
3.05688
2.54251
2.03883
1.54583
1.06341
0.591391
0.129533
-0.322454
-0.764891
-1.19812
-1.6225
-2.0384
-2.44617
-2.8462
-3.23884
-3.62445
-4.00337
-4.37595
-4.74249
-5.10333
-5.45877
-5.80908
-6.15456
-6.49548
-6.83207
-7.1646
-7.49329
-7.81837
-8.14006
-8.45854
-8.77402
-9.08669
-9.39671
-9.70426
-10.0095
-10.3125
-10.6136
-10.9127
-11.2101
-11.5058
-11.8
-12.0927
-12.3841
-12.6741
-12.963
-13.2508
-13.5374
-13.8229
-14.1075
-14.3909
-14.6733
-14.9546
-15.2347
-15.5135
-15.791
-16.0669
-16.3411
-16.6133
-16.8833
-17.1507
-17.4151
-17.676
-17.9329
-18.1852
-18.4322
-18.673
-18.9068
-19.1326
-19.3494
-19.5561
-19.7517
-19.9349
-20.1047
-20.2601
-20.4004
-20.5247
-20.6327
12.5394
12.536
12.4657
12.322
12.1162
11.8539
11.5392
11.1773
10.7746
10.3369
9.87037
9.38047
8.87244
8.35096
7.82023
7.28388
6.74504
6.20634
5.66997
5.13772
4.61101
4.09096
3.57841
3.07399
2.57814
2.09111
1.61306
1.14401
0.683921
0.23267
-0.209913
-0.644041
-1.06995
-1.48792
-1.89821
-2.30112
-2.69694
-3.08597
-3.46849
-3.8448
-4.21518
-4.57991
-4.93927
-5.2935
-5.64287
-5.98763
-6.32799
-6.66421
-6.99648
-7.32502
-7.65004
-7.97171
-8.29023
-8.60578
-8.91851
-9.22858
-9.53616
-9.84137
-10.1444
-10.4453
-10.7442
-11.0412
-11.3365
-11.6301
-11.9222
-12.2127
-12.5019
-12.7896
-13.076
-13.3611
-13.645
-13.9275
-14.2088
-14.4887
-14.7673
-15.0445
-15.3201
-15.594
-15.866
-16.1361
-16.4038
-16.669
-16.9312
-17.1901
-17.4453
-17.6962
-17.9422
-18.1827
-18.4169
-18.6441
-18.8633
-19.0738
-19.2745
-19.4645
-19.6429
-19.8087
-19.9611
-20.0996
-20.2234
-20.3324
11.8594
11.8562
11.7937
11.666
11.4827
11.2485
10.9666
10.6413
10.2778
9.88122
9.45647
9.00843
8.54165
8.06031
7.56819
7.06861
6.56452
6.05843
5.55247
5.04842
4.54774
4.05163
3.56101
3.07661
2.59897
2.12848
1.66539
1.20985
0.761932
0.321613
-0.111175
-0.536547
-0.954656
-1.36568
-1.76983
-2.1673
-2.55834
-2.94317
-3.32203
-3.69515
-4.06277
-4.42512
-4.78244
-5.13493
-5.48283
-5.82634
-6.16567
-6.50102
-6.83257
-7.16052
-7.48504
-7.80629
-8.12445
-8.43967
-8.7521
-9.06188
-9.36914
-9.67402
-9.97663
-10.2771
-10.5755
-10.872
-11.1666
-11.4594
-11.7506
-12.0401
-12.328
-12.6145
-12.8994
-13.1828
-13.4648
-13.7452
-14.0242
-14.3017
-14.5775
-14.8516
-15.1239
-15.3943
-15.6626
-15.9285
-16.1919
-16.4524
-16.7097
-16.9635
-17.2132
-17.4584
-17.6986
-17.9332
-18.1614
-18.3827
-18.5961
-18.8009
-18.9964
-19.1817
-19.3559
-19.5184
-19.6685
-19.8056
-19.9293
-20.0393
11.2376
11.2347
11.1787
11.0645
10.9002
10.6899
10.436
10.1422
9.81268
9.45176
9.06371
8.65269
8.22268
7.77739
7.3202
6.85417
6.38203
5.90613
5.42854
4.951
4.47498
4.00169
3.53213
3.0671
2.60722
2.15296
1.70468
1.26262
0.826929
0.397687
-0.0250874
-0.441427
-0.851407
-1.25513
-1.65273
-2.04435
-2.43017
-2.81035
-3.18508
-3.55455
-3.91894
-4.27845
-4.63326
-4.98356
-5.32953
-5.67136
-6.00922
-6.34327
-6.6737
-7.00065
-7.32428
-7.64474
-7.96217
-8.27671
-8.5885
-8.89766
-9.2043
-9.50854
-9.81048
-10.1102
-10.4079
-10.7035
-10.9972
-11.2891
-11.5791
-11.8674
-12.154
-12.4389
-12.7221
-13.0037
-13.2837
-13.562
-13.8386
-14.1134
-14.3864
-14.6575
-14.9266
-15.1935
-15.458
-15.7199
-15.9791
-16.2351
-16.4877
-16.7366
-16.9812
-17.2212
-17.4561
-17.6852
-17.908
-18.1239
-18.3321
-18.532
-18.7229
-18.9041
-19.0748
-19.2346
-19.3828
-19.5189
-19.6426
-19.7538
10.6679
10.6652
10.6148
10.5119
10.3639
10.174
9.94421
9.67755
9.37754
9.04783
8.69206
8.31383
7.91662
7.50371
7.07813
6.64267
6.19983
5.75183
5.30063
4.84791
4.39513
3.9435
3.49406
3.04765
2.60495
2.1665
1.73273
1.30396
0.880416
0.462256
0.0495705
-0.357601
-0.759262
-1.15545
-1.54624
-1.93172
-2.31199
-2.68719
-3.05744
-3.42288
-3.78367
-4.13996
-4.49189
-4.83961
-5.18329
-5.52306
-5.85908
-6.19148
-6.52042
-6.84602
-7.16843
-7.48776
-7.80414
-8.1177
-8.42854
-8.73678
-9.04251
-9.34584
-9.64686
-9.94566
-10.2423
-10.5369
-10.8294
-11.1201
-11.4088
-11.6957
-11.9807
-12.2639
-12.5454
-12.825
-13.1029
-13.3789
-13.6531
-13.9253
-14.1955
-14.4635
-14.7293
-14.9928
-15.2536
-15.5117
-15.7667
-16.0185
-16.2667
-16.5109
-16.7508
-16.9859
-17.2158
-17.4399
-17.6578
-17.8689
-18.0725
-18.268
-18.4549
-18.6326
-18.8004
-18.9578
-19.1045
-19.2399
-19.3639
-19.4762
10.145
10.1425
10.0969
10.0038
9.86966
9.6973
9.48832
9.2452
8.97091
8.66856
8.34126
7.99212
7.6242
7.24038
6.84339
6.43575
6.01976
5.59748
5.17077
4.74122
4.31027
3.87911
3.4488
3.02018
2.594
2.17085
1.7512
1.33543
0.923847
0.51666
0.114026
-0.283952
-0.677218
-1.06575
-1.44957
-1.82871
-2.20322
-2.57319
-2.9387
-3.29986
-3.65677
-4.00953
-4.35828
-4.70313
-5.0442
-5.38161
-5.71549
-6.04594
-6.37309
-6.69705
-7.01794
-7.33586
-7.65091
-7.96321
-8.27284
-8.57991
-8.88449
-9.18667
-9.48653
-9.78414
-10.0796
-10.3729
-10.6641
-10.9533
-11.2406
-11.5259
-11.8092
-12.0907
-12.3702
-12.6478
-12.9235
-13.1971
-13.4688
-13.7383
-14.0056
-14.2707
-14.5333
-14.7933
-15.0506
-15.3049
-15.556
-15.8037
-16.0477
-16.2875
-16.5229
-16.7535
-16.9789
-17.1985
-17.4119
-17.6186
-17.8181
-18.0098
-18.1932
-18.3678
-18.533
-18.6886
-18.834
-18.9689
-19.0933
-19.2068
9.66445
9.66217
9.62071
9.536
9.41384
9.25665
9.06571
8.84308
8.5913
8.313
8.01087
7.68759
7.34584
6.98819
6.61706
6.23473
5.84331
5.44472
5.04067
4.63271
4.22219
3.81031
3.39809
2.98643
2.57605
2.16761
1.76161
1.35849
0.958588
0.562179
0.169471
-0.21938
-0.604265
-0.985113
-1.36189
-1.73458
-2.1032
-2.46779
-2.82839
-3.18506
-3.53788
-3.88691
-4.23226
-4.57399
-4.91222
-5.24703
-5.57851
-5.90676
-6.23188
-6.55396
-6.87308
-7.18935
-7.50285
-7.81365
-8.12185
-8.42752
-8.73073
-9.03155
-9.33005
-9.62629
-9.92032
-10.2122
-10.5019
-10.7896
-11.0752
-11.3588
-11.6403
-11.9199
-12.1974
-12.4729
-12.7462
-13.0175
-13.2866
-13.5534
-13.8179
-14.08
-14.3394
-14.5961
-14.8499
-15.1006
-15.348
-15.5918
-15.8317
-16.0675
-16.2988
-16.5252
-16.7463
-16.9618
-17.1711
-17.3739
-17.5697
-17.7579
-17.9382
-18.1102
-18.2733
-18.4272
-18.5716
-18.7063
-18.831
-18.9457
9.22249
9.22038
9.18248
9.10504
8.99326
8.84924
8.67401
8.46931
8.23728
7.98019
7.70035
7.4001
7.08178
6.74766
6.39993
6.04062
5.67168
5.29485
4.91175
4.52384
4.13242
3.73863
3.3435
2.9479
2.55259
2.15823
1.76536
1.37446
0.985905
0.600011
0.217034
-0.162827
-0.539417
-0.91262
-1.28236
-1.64857
-2.01125
-2.37036
-2.72594
-3.078
-3.42658
-3.77173
-4.1135
-4.45196
-4.78716
-5.11917
-5.44807
-5.77393
-6.09682
-6.41682
-6.73399
-7.04841
-7.36015
-7.66928
-7.97585
-8.27994
-8.58161
-8.8809
-9.17787
-9.47257
-9.76504
-10.0553
-10.3434
-10.6294
-10.9133
-11.195
-11.4747
-11.7522
-12.0276
-12.3009
-12.572
-12.8408
-13.1073
-13.3715
-13.6331
-13.8922
-14.1486
-14.4021
-14.6525
-14.8997
-15.1435
-15.3836
-15.6197
-15.8517
-16.079
-16.3015
-16.5188
-16.7305
-16.9361
-17.1353
-17.3278
-17.513
-17.6906
-17.8602
-18.0214
-18.174
-18.3176
-18.452
-18.5772
-18.693
8.81577
8.81381
8.779
8.70788
8.60514
8.4726
8.31111
8.12213
7.9075
7.66915
7.4091
7.12939
6.83206
6.51914
6.19257
5.8542
5.50578
5.14895
4.78519
4.41588
4.04225
3.6654
3.28634
2.90592
2.52492
2.14398
1.7637
1.38455
1.00696
0.631265
0.257767
-0.113297
-0.481736
-0.847394
-1.21015
-1.56992
-1.92664
-2.28026
-2.63077
-2.97815
-3.32241
-3.66358
-4.00166
-4.33671
-4.66875
-4.99784
-5.32401
-5.64733
-5.96784
-6.2856
-6.60067
-6.91309
-7.22292
-7.53021
-7.83501
-8.13738
-8.43735
-8.73497
-9.03027
-9.32331
-9.61409
-9.90266
-10.189
-10.4732
-10.7552
-11.0351
-11.3127
-11.5882
-11.8615
-12.1325
-12.4012
-12.6676
-12.9316
-13.193
-13.4519
-13.7081
-13.9614
-14.2117
-14.459
-14.7028
-14.9432
-15.1798
-15.4123
-15.6406
-15.8644
-16.0833
-16.2969
-16.5051
-16.7074
-16.9034
-17.0928
-17.2753
-17.4505
-17.618
-17.7776
-17.929
-18.072
-18.2063
-18.3319
-18.4488
8.44141
8.43958
8.40747
8.34186
8.24701
8.12454
7.9751
7.79996
7.60068
7.37894
7.1365
6.87512
6.59663
6.3028
5.99538
5.67605
5.34639
5.00789
4.66196
4.30987
3.95278
3.59177
3.22778
2.86167
2.4942
2.12602
1.75774
1.38985
1.0228
0.656953
0.292642
-0.0698645
-0.430342
-0.788602
-1.14449
-1.49789
-1.8487
-2.19685
-2.54229
-2.88497
-3.22487
-3.56199
-3.89633
-4.22789
-4.55669
-4.88275
-5.2061
-5.52677
-5.84479
-6.1602
-6.47304
-6.78334
-7.09114
-7.39647
-7.69938
-7.99991
-8.29807
-8.5939
-8.88744
-9.1787
-9.4677
-9.75447
-10.039
-10.3213
-10.6014
-10.8793
-11.1549
-11.4283
-11.6993
-11.9681
-12.2344
-12.4984
-12.7598
-13.0186
-13.2747
-13.528
-13.7784
-14.0257
-14.2698
-14.5105
-14.7476
-14.9808
-15.21
-15.4349
-15.6553
-15.8708
-16.0812
-16.2861
-16.4853
-16.6784
-16.8651
-17.0451
-17.2181
-17.3838
-17.542
-17.6924
-17.8348
-17.9691
-18.0952
-18.213
8.09689
8.09518
8.06543
8.00465
7.91673
7.80308
7.66427
7.50133
7.31564
7.10866
6.88189
6.63692
6.37533
6.09872
5.80864
5.5066
5.19406
4.87239
4.54286
4.20668
3.86496
3.5187
3.16882
2.81616
2.46145
2.10536
1.74848
1.39133
1.03437
0.677996
0.322548
-0.0316755
-0.38442
-0.735469
-1.08464
-1.43179
-1.77678
-2.11951
-2.45991
-2.79791
-3.13346
-3.46652
-3.79708
-4.12511
-4.45062
-4.77359
-5.09405
-5.412
-5.72745
-6.04043
-6.35096
-6.65905
-6.96473
-7.26802
-7.56895
-7.86754
-8.16381
-8.45777
-8.74945
-9.03886
-9.326
-9.61089
-9.89353
-10.1739
-10.452
-10.7279
-11.0014
-11.2726
-11.5415
-11.808
-12.072
-12.3334
-12.5923
-12.8485
-13.102
-13.3525
-13.6
-13.8444
-14.0855
-14.3231
-14.557
-14.7871
-15.0131
-15.2349
-15.452
-15.6644
-15.8717
-16.0737
-16.2701
-16.4605
-16.6447
-16.8225
-16.9936
-17.1577
-17.3146
-17.4641
-17.606
-17.7403
-17.8668
-17.9856
7.78001
7.77841
7.75074
7.69419
7.61236
7.5065
7.37705
7.22491
7.05128
6.85742
6.64466
6.41437
6.16798
5.90688
5.6325
5.34619
5.04926
4.74298
4.42855
4.10706
3.77957
3.44704
3.11033
2.77027
2.42756
2.08288
1.73681
1.38988
1.04255
0.695229
0.348291
0.00204976
-0.343219
-0.687275
-1.02991
-1.37095
-1.71024
-2.04766
-2.3831
-2.71646
-3.04769
-3.37672
-3.7035
-4.028
-4.35019
-4.67005
-4.98758
-5.30276
-5.6156
-5.9261
-6.23425
-6.54007
-6.84357
-7.14476
-7.44365
-7.74024
-8.03455
-8.32658
-8.61634
-8.90383
-9.18907
-9.47203
-9.75272
-10.0311
-10.3072
-10.581
-10.8525
-11.1215
-11.3882
-11.6524
-11.914
-12.1731
-12.4295
-12.6831
-12.9339
-13.1818
-13.4265
-13.6681
-13.9063
-14.1409
-14.3719
-14.599
-14.822
-15.0408
-15.255
-15.4644
-15.6689
-15.8681
-16.0619
-16.2498
-16.4318
-16.6076
-16.7769
-16.9396
-17.0953
-17.244
-17.3856
-17.5199
-17.6468
-17.7664
7.48883
7.48733
7.46149
7.40868
7.33223
7.23324
7.11208
6.96951
6.80659
6.62443
6.42417
6.20705
5.97431
5.72722
5.46704
5.19501
4.91232
4.62014
4.31955
4.01161
3.69729
3.37749
3.05306
2.72477
2.39333
2.05938
1.72352
1.38626
1.04808
0.709403
0.370606
0.0320216
-0.306053
-0.643358
-0.979666
-1.31478
-1.64852
-1.98074
-2.31132
-2.64013
-2.9671
-3.29213
-3.61517
-3.93616
-4.25504
-4.5718
-4.88638
-5.19879
-5.50898
-5.81696
-6.12272
-6.42623
-6.72751
-7.02655
-7.32335
-7.6179
-7.91021
-8.20026
-8.48807
-8.77361
-9.05689
-9.3379
-9.61661
-9.89302
-10.1671
-10.4388
-10.7082
-10.9751
-11.2395
-11.5014
-11.7608
-12.0175
-12.2714
-12.5226
-12.7708
-13.016
-13.2581
-13.4969
-13.7323
-13.9642
-14.1924
-14.4166
-14.6368
-14.8527
-15.0641
-15.2709
-15.4727
-15.6694
-15.8607
-16.0465
-16.2264
-16.4003
-16.568
-16.7293
-16.8841
-17.0321
-17.1733
-17.3076
-17.4349
-17.5552
7.22166
7.22024
7.19602
7.14651
7.07481
6.9819
6.86809
6.73403
6.58064
6.4089
6.21983
6.01451
5.79406
5.55961
5.31229
5.05322
4.7835
4.5042
4.21632
3.92084
3.61867
3.31067
2.99764
2.68033
2.35943
2.03556
1.7093
1.38118
1.05167
0.721194
0.390151
0.058884
-0.272297
-0.603116
-0.933325
-1.26271
-1.59107
-1.91825
-2.24409
-2.56846
-2.89125
-3.21236
-3.53171
-3.84922
-4.16484
-4.4785
-4.79016
-5.09978
-5.40734
-5.7128
-6.01613
-6.31733
-6.61637
-6.91324
-7.20792
-7.50041
-7.79069
-8.07875
-8.36457
-8.64814
-8.92945
-9.20848
-9.48521
-9.75961
-10.0317
-10.3013
-10.5685
-10.8333
-11.0956
-11.3553
-11.6123
-11.8666
-12.1182
-12.3669
-12.6127
-12.8554
-13.0949
-13.3311
-13.5638
-13.793
-14.0185
-14.24
-14.4576
-14.6708
-14.8796
-15.0838
-15.2832
-15.4775
-15.6666
-15.8503
-16.0283
-16.2006
-16.3668
-16.5269
-16.6807
-16.8281
-16.969
-17.1033
-17.2309
-17.352
6.97699
6.97565
6.95285
6.90627
6.83877
6.75126
6.64396
6.51747
6.37257
6.21014
6.03108
5.83635
5.62695
5.40389
5.1682
4.9209
4.66299
4.39544
4.11919
3.83515
3.54418
3.24709
2.94464
2.63754
2.32646
2.01202
1.69477
1.37525
1.05391
0.731208
0.407524
0.0832194
-0.241384
-0.565997
-0.890356
-1.21423
-1.53741
-1.8597
-2.18095
-2.501
-2.81972
-3.137
-3.45274
-3.76684
-4.07923
-4.38984
-4.69861
-5.00548
-5.31041
-5.61336
-5.91429
-6.21316
-6.50996
-6.80466
-7.09722
-7.38763
-7.67587
-7.96192
-8.24575
-8.52735
-8.80668
-9.08373
-9.35847
-9.63086
-9.90088
-10.1685
-10.4336