/*--------------------------------*- C++ -*----------------------------------*\
| =========                 |                                                 |
| \\      /  F ield         | OpenFOAM: The Open Source CFD Toolbox           |
|  \\    /   O peration     | Version:  2406                                  |
|   \\  /    A nd           | Website:  www.openfoam.com                      |
|    \\/     M anipulation  |                                                 |
\*---------------------------------------------------------------------------*/
FoamFile
{
    version     2.0;
    format      ascii;
    arch        "LSB;label=32;scalar=64";
    class       surfaceScalarField;
    location    "300";
    object      phi;
}
// * * * * * * * * * * * * * * * * * * * * * * * * * * * * * * * * * * * * * //

dimensions      [0 3 -1 0 0 0 0];

oriented        oriented;

internalField   nonuniform List<scalar> 
299000
(
0.0796643
0.0203357
0.0586792
0.0209852
0.0442547
0.0144245
0.034802
0.00945275
0.0285
0.00630193
0.0241898
0.00431026
0.0211381
0.00305168
0.0188886
0.00224949
0.0171647
0.00172394
0.0157985
0.00136617
0.0146857
0.00111283
0.0137588
0.00092682
0.012973
0.000785874
0.0122968
0.000676148
0.0117081
0.000588765
0.0111902
0.000517841
0.0107309
0.000459348
0.0103204
0.000410448
0.00995134
0.000369085
0.0096176
0.00033374
0.00931434
0.000303266
0.00903756
0.00027678
0.00878396
0.000253597
0.00855079
0.000233173
0.00833571
0.000215075
0.00813676
0.000198953
0.00795224
0.00018452
0.0077807
0.000171542
0.00762088
0.000159823
0.00747168
0.0001492
0.00733214
0.000139537
0.00720142
0.000130718
0.00707878
0.000122643
0.00696355
0.000115228
0.00685515
0.0001084
0.00675306
0.000102096
0.0066568
9.62612e-05
0.00656595
9.08484e-05
0.00648013
8.58156e-05
0.00639901
8.11257e-05
0.00632226
7.67465e-05
0.00624961
7.26491e-05
0.00618081
6.88078e-05
0.00611561
6.51998e-05
0.0060538
6.18048e-05
0.0059952
5.86042e-05
0.00593962
5.55815e-05
0.0058869
5.27219e-05
0.00583689
5.00116e-05
0.00578945
4.74384e-05
0.00574446
4.49911e-05
0.0057018
4.26592e-05
0.00566136
4.04334e-05
0.00562306
3.83048e-05
0.00558679
3.62655e-05
0.00555249
3.43079e-05
0.00552006
3.2425e-05
0.00548945
3.06102e-05
0.0054606
2.88573e-05
0.00543344
2.71606e-05
0.00540792
2.55143e-05
0.00538401
2.39132e-05
0.00536166
2.2352e-05
0.00534083
2.08257e-05
0.0053215
1.93295e-05
0.00530364
1.78582e-05
0.00528724
1.64072e-05
0.00527227
1.49712e-05
0.00525872
1.35454e-05
0.0052466
1.21243e-05
0.00523589
1.07025e-05
0.00522662
9.27404e-06
0.00521879
7.83267e-06
0.00521241
6.37138e-06
0.00520753
4.88267e-06
0.00520417
3.35787e-06
0.00520238
1.78748e-06
0.00520222
1.60234e-07
0.00520376
-1.53661e-06
0.00520708
-3.31851e-06
0.00521228
-5.20341e-06
0.00521949
-7.21355e-06
0.00522887
-9.37571e-06
0.00524059
-1.1724e-05
0.00525489
-1.43014e-05
0.00527205
-1.71649e-05
0.00529245
-2.03913e-05
0.00531653
-2.40903e-05
0.00534496
-2.8425e-05
0.00537861
-3.36564e-05
0.00541884
-4.0226e-05
0.00546777
-4.89306e-05
0.00552904
-6.12784e-05
0.00560929
-8.02499e-05
0.00572126
-0.000111974
0.00589063
-0.000169371
0.00616976
-0.000279133
0.00666699
-0.000497238
0.00765202
-0.00098504
-0.0023315
0.0099835
0.105208
0.0151278
0.100188
0.0260049
0.0901928
0.0244197
0.0797505
0.0198951
0.0705682
0.0154842
0.0629865
0.0118919
0.0568442
0.00919403
0.0518639
0.0072298
0.0477874
0.00580037
0.0444073
0.00474634
0.0415656
0.00395453
0.039145
0.00334743
0.0370583
0.00287251
0.0352405
0.00249401
0.033642
0.00218724
0.0322249
0.00193489
0.0309597
0.00172457
0.0298229
0.00154725
0.0287958
0.00139621
0.0278632
0.00126637
0.0270126
0.00115386
0.0262337
0.00105565
0.0255179
0.000969347
0.0248581
0.000893055
0.0242479
0.000825242
0.0236822
0.000764663
0.0231564
0.000710295
0.0226667
0.000661293
0.0222095
0.000616953
0.0217821
0.000576684
0.0213816
0.000539985
0.0210059
0.000506435
0.0206529
0.000475669
0.0203207
0.000447377
0.0200078
0.00042129
0.0197127
0.000397176
0.0194342
0.000374832
0.0191709
0.00035408
0.018922
0.000334765
0.0186864
0.00031675
0.0184632
0.000299913
0.0182517
0.000284146
0.0180512
0.000269354
0.0178609
0.000255451
0.0176804
0.000242359
0.017509
0.00023001
0.0173462
0.000218342
0.0171916
0.000207297
0.0170448
0.000196825
0.0169054
0.000186878
0.0167729
0.000177416
0.0166472
0.000168397
0.0165279
0.000159787
0.0164146
0.000151552
0.0163072
0.000143662
0.0162054
0.000136089
0.0161091
0.000128805
0.0160179
0.000121785
0.0159317
0.000115007
0.0158504
0.000108448
0.0157739
0.000102086
0.0157019
9.59027e-05
0.0156344
8.98769e-05
0.0155712
8.399e-05
0.0155123
7.82234e-05
0.0154576
7.25586e-05
0.015407
6.6977e-05
0.0153605
6.14601e-05
0.0153181
5.59888e-05
0.0152797
5.05435e-05
0.0152453
4.51034e-05
0.0152149
3.96469e-05
0.0151886
3.41505e-05
0.0151664
2.85888e-05
0.0151483
2.29337e-05
0.0151345
1.7154e-05
0.0151251
1.1214e-05
0.0151202
5.07344e-06
0.01512
-1.31514e-06
0.0151246
-8.00713e-06
0.0151345
-1.50691e-05
0.0151499
-2.25815e-05
0.0151711
-3.06436e-05
0.0151988
-3.93798e-05
0.0152334
-4.89498e-05
0.0152758
-5.95629e-05
0.0153269
-7.15033e-05
0.015388
-8.51687e-05
0.0154607
-0.000101141
0.0155474
-0.00012031
0.0156512
-0.000144098
0.0157772
-0.000174877
0.0159327
-0.000216759
0.0161295
-0.000277082
0.0163867
-0.000369225
0.016735
-0.00051771
0.0172227
-0.000766777
0.0179224
-0.00119702
0.0189008
-0.00196341
-0.00329476
0.019864
0.105142
0.00998548
0.10894
0.0222071
0.107708
0.0256523
0.103024
0.0245786
0.0967864
0.0217218
0.0902303
0.018448
0.084005
0.0154194
0.0783725
0.0128622
0.0733882
0.0107847
0.0690147
0.00911988
0.0651813
0.00778789
0.0618123
0.0067165
0.0588377
0.00584709
0.0561974
0.00513431
0.0538409
0.00454372
0.0517265
0.00404931
0.0498197
0.00363139
0.048092
0.00327492
0.0465199
0.00296835
0.0450836
0.00270267
0.0437666
0.00247083
0.042555
0.00226723
0.041437
0.00208738
0.0404024
0.00192766
0.0394425
0.0017851
0.0385499
0.00165728
0.037718
0.00154219
0.0369412
0.00143815
0.0362144
0.00134375
0.0355333
0.0012578
0.0348939
0.00117931
0.034293
0.00110739
0.0337273
0.00104132
0.0331942
0.00098046
0.0326913
0.000924249
0.0322163
0.000872211
0.0317672
0.000823925
0.0313422
0.000779021
0.0309398
0.000737177
0.0305585
0.000698104
0.0301968
0.000661548
0.0298537
0.000627283
0.0295279
0.000595107
0.0292186
0.000564838
0.0289246
0.000536315
0.0286452
0.00050939
0.0283796
0.000483933
0.0281271
0.000459822
0.027887
0.000436948
0.0276586
0.000415213
0.0274415
0.000394525
0.0272351
0.000374801
0.027039
0.000355965
0.0268526
0.000337946
0.0266756
0.000320677
0.0265075
0.000304098
0.0263482
0.000288153
0.0261972
0.000272787
0.0260543
0.00025795
0.0259191
0.000243594
0.0257915
0.000229675
0.0256713
0.000216149
0.0255582
0.000202973
0.0254521
0.000190107
0.0253528
0.000177512
0.0252602
0.000165147
0.0251742
0.000152973
0.0250947
0.000140951
0.0250216
0.00012904
0.024955
0.000117198
0.0248947
0.000105382
0.0248408
9.3547e-05
0.0247933
8.16424e-05
0.0247523
6.96155e-05
0.0247178
5.74077e-05
0.02469
4.49537e-05
0.024669
3.21802e-05
0.0246551
1.9003e-05
0.0246485
5.32455e-06
0.0246494
-8.96949e-06
0.0246584
-2.40157e-05
0.0246758
-3.99792e-05
0.0247022
-5.7063e-05
0.0247383
-7.55212e-05
0.0247851
-9.5678e-05
0.0248434
-0.000117957
0.0249149
-0.000142926
0.0250011
-0.000171367
0.0251043
-0.000204399
0.0252277
-0.000243667
0.0253752
-0.000291683
0.0255527
-0.000352394
0.0257681
-0.000432162
0.0260325
-0.000541413
0.0263606
-0.000697342
0.0267709
-0.000928011
0.0272818
-0.00127773
0.0278976
-0.00181281
0.0285545
-0.0026203
-0.00375205
0.0290118
0.103312
0.00667338
0.108501
0.017018
0.111574
0.0225792
0.111772
0.0243808
0.109657
0.023837
0.106065
0.0220399
0.101732
0.0197528
0.0971676
0.0174262
0.0926769
0.0152753
0.0884184
0.0133784
0.0844613
0.0117449
0.0808241
0.0103538
0.0774982
0.00917292
0.074463
0.0081696
0.0716926
0.00731409
0.0691608
0.00658106
0.0668428
0.00594947
0.0647155
0.00540214
0.0627588
0.00492511
0.0609544
0.00450701
0.0592867
0.00413862
0.0577415
0.00381237
0.0563069
0.00352205
0.054972
0.00326257
0.0537274
0.00302965
0.0525649
0.00281975
0.0514772
0.00262989
0.0504578
0.00245756
0.049501
0.00230062
0.0486015
0.00215726
0.0477549
0.00202593
0.046957
0.00190527
0.0462042
0.00179413
0.0454932
0.00169151
0.0448209
0.00159653
0.0441847
0.00150842
0.0435821
0.00142651
0.0430109
0.00135021
0.0424691
0.00127899
0.0419548
0.00121239
0.0414664
0.00115
0.0410022
0.00109144
0.0405609
0.00103638
0.0401412
0.000984535
0.0397419
0.000935625
0.0393619
0.000889412
0.0390001
0.000845677
0.0386557
0.000804222
0.0383278
0.000764865
0.0380156
0.000727441
0.0377183
0.000691799
0.0374353
0.000657799
0.037166
0.000625312
0.0369097
0.000594221
0.036666
0.000564415
0.0364343
0.000535791
0.0362142
0.000508254
0.0360053
0.000481714
0.0358071
0.000456086
0.0356194
0.00043129
0.0354419
0.000407249
0.0352741
0.00038389
0.0351159
0.000361142
0.0349671
0.000338937
0.0348274
0.000317208
0.0346967
0.000295887
0.0345747
0.00027491
0.0344615
0.000254209
0.0343568
0.000233717
0.0342606
0.000213365
0.0341729
0.00019308
0.0340937
0.000172786
0.0340229
0.000152401
0.0339607
0.000131839
0.0339071
0.000111001
0.0338623
8.97832e-05
0.0338264
6.80639e-05
0.0337997
4.5707e-05
0.0337825
2.25547e-05
0.0337751
-1.57744e-06
0.033778
-2.69085e-05
0.0337917
-5.37021e-05
0.0338169
-8.22806e-05
0.0338544
-0.000113045
0.0339052
-0.000146502
0.0339706
-0.000183308
0.034052
-0.000224326
0.0341513
-0.000270727
0.0342711
-0.000324131
0.0344142
-0.000386843
0.0345848
-0.000462225
0.0347876
-0.000555274
0.035029
-0.000673534
0.035316
-0.000828451
0.035656
-0.00103728
0.0360533
-0.00132534
0.0365032
-0.00172765
0.0369776
-0.00228724
0.0374
-0.00304268
-0.00398506
0.037633
0.102077
0.0045959
0.106348
0.0127478
0.110418
0.0185085
0.113046
0.0217531
0.113912
0.0229711
0.113197
0.0227554
0.111293
0.0216566
0.108613
0.0201062
0.105495
0.0183931
0.102185
0.0166888
0.0988449
0.0150846
0.0955776
0.0136211
0.0924411
0.0123094
0.0894656
0.0111451
0.0866634
0.0101163
0.0840359
0.00920856
0.0815781
0.00840718
0.0792819
0.00769837
0.0771372
0.00706981
0.0751335
0.00651071
0.0732604
0.00601176
0.0715078
0.00556498
0.0698663
0.00516356
0.0683272
0.00480169
0.0668824
0.00447443
0.0655246
0.00417753
0.0642471
0.00390736
0.0630439
0.00366081
0.0619093
0.00343519
0.0608384
0.00322817
0.0598266
0.00303775
0.0588697
0.00286218
0.0579639
0.00269991
0.0571058
0.00254961
0.0562922
0.00241011
0.0555203
0.00228036
0.0547873
0.00215945
0.054091
0.00204656
0.053429
0.00194098
0.0527993
0.00184205
0.0522001
0.00174919
0.0516297
0.0016619
0.0510864
0.0015797
0.0505687
0.00150218
0.0500754
0.00142895
0.0496051
0.00135967
0.0491568
0.00129403
0.0487293
0.00123174
0.0483216
0.00117254
0.0479328
0.0011162
0.0475621
0.0010625
0.0472087
0.00101123
0.0468718
0.000962205
0.0465508
0.000915259
0.046245
0.000870227
0.0459538
0.000826961
0.0456767
0.000785321
0.0454133
0.000745174
0.045163
0.000706398
0.0449254
0.000668873
0.0447002
0.000632487
0.0444869
0.000597134
0.0442853
0.000562709
0.0440952
0.000529111
0.0439161
0.000496241
0.043748
0.000464003
0.0435906
0.0004323
0.0434438
0.000401033
0.0433074
0.000370105
0.0431814
0.000339413
0.0430656
0.000308853
0.0429601
0.000278314
0.0428648
0.000247679
0.0427798
0.000216821
0.0427052
0.000185602
0.0426411
0.000153869
0.0425877
0.000121453
0.0425453
8.81585e-05
0.0425141
5.37649e-05
0.0424945
1.80132e-05
0.042487
-1.94012e-05
0.0424921
-5.88428e-05
0.0425106
-0.000100754
0.0425432
-0.000145678
0.042591
-0.000194297
0.0426552
-0.000247478
0.0427372
-0.000306343
0.0428388
-0.000372376
0.0429623
-0.000447574
0.0431101
-0.000534677
0.0432854
-0.000637504
0.0434915
-0.000761443
0.0437321
-0.000914145
0.0440101
-0.00110642
0.044326
-0.00135325
0.0446752
-0.00167454
0.0450421
-0.00209448
0.0453922
-0.00263736
0.0456654
-0.00331585
-0.0041053
0.0457856
0.101292
0.0033037
0.104405
0.00963502
0.108104
0.0148092
0.111405
0.0184521
0.113752
0.0206243
0.114946
0.0215611
0.115041
0.021562
0.114222
0.0209252
0.112715
0.0199006
0.110729
0.018674
0.108441
0.0173727
0.105985
0.0160779
0.103457
0.0148373
0.100926
0.013676
0.0984373
0.0126047
0.0960208
0.011625
0.093694
0.010734
0.0914665
0.00992584
0.0893427
0.00919365
0.0873231
0.00853028
0.0854061
0.00792877
0.0835884
0.00738265
0.081866
0.00688597
0.0802343
0.0064334
0.0786885
0.0060202
0.0772239
0.00564214
0.0758358
0.0052955
0.0745196
0.004977
0.0732711
0.00468373
0.0720861
0.00441313
0.0709609
0.00416296
0.0698919
0.0039312
0.0688757
0.00371611
0.0679092
0.00351609
0.0669895
0.00332978
0.066114
0.00315591
0.06528
0.00299339
0.0644854
0.00284122
0.0637278
0.00269851
0.0630054
0.00256447
0.0623162
0.00243837
0.0616586
0.00231957
0.0610308
0.00220748
0.0604314
0.00210157
0.059859
0.00200135
0.0593123
0.00190638
0.05879
0.00181627
0.0582911
0.00173064
0.0578145
0.00164915
0.0573592
0.00157149
0.0569244
0.00149739
0.056509
0.00142657
0.0561124
0.00135879
0.0557339
0.00129383
0.0553726
0.00123146
0.0550281
0.0011715
0.0546996
0.00111376
0.0543868
0.00105805
0.0540889
0.00100422
0.0538057
0.000952112
0.0535366
0.00090157
0.0532813
0.000852452
0.0530394
0.000804618
0.0528106
0.000757935
0.0525945
0.000712268
0.0523911
0.000667488
0.0521999
0.000623465
0.0520209
0.000580068
0.0518538
0.000537166
0.0516986
0.000494622
0.0515551
0.000452298
0.0514234
0.000410045
0.0513034
0.000367709
0.0511951
0.000325123
0.0510986
0.000282105
0.051014
0.000238456
0.0509415
0.000193954
0.0508813
0.00014835
0.0508337
0.000101357
0.0507991
5.26458e-05
0.0507778
1.83041e-06
0.0507705
-5.15469e-05
0.0507778
-0.000108036
0.0508004
-0.000168305
0.0508393
-0.000233181
0.0508955
-0.000303696
0.0509703
-0.000381161
0.0510652
-0.000467267
0.0511819
-0.000564221
0.0513221
-0.000674941
0.051488
-0.000803327
0.0516811
-0.000954608
0.0519027
-0.00113579
0.0521524
-0.00135611
0.0524266
-0.00162743
0.0527161
-0.00196401
0.0530026
-0.00238106
0.0532559
-0.00289066
0.0534334
-0.00349336
-0.00416451
0.0534927
0.100819
0.00248517
0.103016
0.00743793
0.105987
0.0118376
0.109099
0.0153398
0.111866
0.0178577
0.113985
0.0194424
0.115326
0.0202209
0.115893
0.0203586
0.115768
0.020025
0.115073
0.0193693
0.113933
0.0185123
0.112466
0.0175451
0.11077
0.0165329
0.108927
0.0155199
0.106997
0.0145344
0.105028
0.0135936
0.103056
0.0127066
0.101104
0.0118774
0.0991912
0.0111065
0.097329
0.0103925
0.0955254
0.00973244
0.093785
0.00912303
0.0921104
0.00856056
0.0905025
0.00804132
0.088961
0.00756172
0.0874848
0.00711834
0.0860722
0.00670803
0.0847214
0.00632785
0.08343
0.00597513
0.0821957
0.00564745
0.081016
0.00534259
0.0798886
0.00505857
0.0788112
0.00479357
0.0777813
0.00454598
0.0767968
0.00431431
0.0758555
0.00409723
0.0749553
0.00389355
0.0740943
0.00370217
0.0732707
0.00352211
0.0724827
0.00335247
0.0717287
0.00319243
0.071007
0.00304125
0.0703162
0.00289826
0.069655
0.00276284
0.0690219
0.00263442
0.0684158
0.00251249
0.0678355
0.00239656
0.0672799
0.00228621
0.066748
0.00218103
0.0662389
0.00208064
0.0657516
0.00198471
0.0652852
0.0018929
0.0648391
0.00180493
0.0644124
0.00172051
0.0640045
0.00163938
0.0636147
0.00156131
0.0632424
0.00148606
0.062887
0.00141341
0.0625481
0.00134315
0.0622251
0.00127511
0.0619176
0.00120907
0.0616252
0.00114487
0.0613475
0.00108233
0.0610841
0.00102128
0.0608349
0.000961559
0.0605993
0.000902997
0.0603774
0.000845432
0.0601687
0.000788702
0.0599733
0.000732641
0.0597908
0.000677079
0.0596213
0.000621842
0.0594646
0.000566746
0.0593207
0.000511598
0.0591896
0.000456192
0.0590714
0.000400304
0.0589662
0.000343691
0.058874
0.000286081
0.0587952
0.000227172
0.0587299
0.00016662
0.0586786
0.000104031
0.0586414
3.89471e-05
0.0586191
-2.91667e-05
0.058612
-0.000100948
0.0586208
-0.000177162
0.0586464
-0.000258737
0.0586895
-0.000346817
0.0587511
-0.00044282
0.0588324
-0.000548528
0.0589344
-0.0006662
0.0590582
-0.000798715
0.0592046
-0.000949763
0.059374
-0.00112406
0.0595658
-0.00132756
0.0597773
-0.00156766
0.060003
-0.0018531
0.0602324
-0.00219341
0.0604487
-0.00259738
0.0606279
-0.00306989
0.0607412
-0.0036066
-0.0041872
0.0607639
0.100541
0.00194433
0.102093
0.00588582
0.10437
0.00956095
0.106998
0.0127119
0.109631
0.0152241
0.111999
0.0170748
0.113921
0.018299
0.115307
0.0189722
0.116141
0.0191907
0.116457
0.0190541
0.116314
0.0186547
0.115788
0.0180717
0.114951
0.0173693
0.113874
0.0165971
0.112616
0.0157921
0.111229
0.0149809
0.109754
0.0141819
0.108224
0.0134073
0.106666
0.0126648
0.105099
0.0119586
0.103541
0.0112909
0.102002
0.010662
0.100491
0.0100713
0.0990151
0.00951753
0.0975779
0.00899897
0.0961826
0.00851366
0.094831
0.00805956
0.0935243
0.00763461
0.0922626
0.00723678
0.0910459
0.00686416
0.0898736
0.0065149
0.0887449
0.00618729
0.0876588
0.0058797
0.0866141
0.00559065
0.0856096
0.00531876
0.0846441
0.00506275
0.0837162
0.00482145
0.0828246
0.00459376
0.081968
0.0043787
0.0811452
0.00417534
0.0803548
0.00398284
0.0795956
0.00380042
0.0788665
0.00362737
0.0781663
0.00346303
0.0774939
0.00330677
0.0768484
0.00315805
0.0762286
0.00301633
0.0756337
0.00288113
0.0750627
0.00275201
0.0745148
0.00262855
0.0739892
0.00251034
0.073485
0.00239704
0.0730017
0.00228831
0.0725384
0.00218381
0.0720945
0.00208327
0.0716694
0.00198638
0.0712626
0.00189289
0.0708735
0.00180254
0.0705015
0.00171509
0.0701463
0.00163031
0.0698074
0.00154798
0.0694844
0.00146789
0.0691769
0.00138983
0.0688846
0.0013136
0.0686071
0.001239
0.0683443
0.00116583
0.0680958
0.00109391
0.0678615
0.00102304
0.0676411
0.000953019
0.0674345
0.000883645
0.0672417
0.000814712
0.0670624
0.000746002
0.0668967
0.000677288
0.0667446
0.000608325
0.066606
0.000538852
0.0664812
0.000468584
0.06637
0.000397205
0.0662728
0.000324368
0.0661898
0.000249678
0.0661211
0.000172689
0.0660672
9.28859e-05
0.0660283
9.67292e-06
0.066005
-7.76496e-05
0.0659978
-0.00016991
0.0660071
-0.000268098
0.0660337
-0.000373408
0.0660782
-0.00048729
0.0661412
-0.000611517
0.0662232
-0.00074827
0.0663248
-0.000900235
0.0664457
-0.00107071
0.0665854
-0.00126372
0.0667419
-0.00148409
0.0669116
-0.00173738
0.0670882
-0.00202972
0.0672619
-0.00236708
0.0674185
-0.00275401
0.06754
-0.00319144
0.067607
-0.00367358
-0.00418472
0.0676046
0.100374
0.00156998
0.101489
0.00477092
0.103211
0.00783945
0.105327
0.0105953
0.107614
0.012937
0.109868
0.0148207
0.111926
0.0162414
0.113674
0.0172248
0.115046
0.0178179
0.116022
0.0180787
0.116608
0.0180684
0.116834
0.0178453
0.116742
0.017462
0.116376
0.0169633
0.115781
0.0163862
0.115002
0.01576
0.114077
0.0151075
0.113038
0.0144457
0.111916
0.0137872
0.110733
0.0131411
0.109511
0.0125135
0.108264
0.0119085
0.107007
0.0113285
0.10575
0.010775
0.1045
0.0102483
0.103266
0.00974824
0.102051
0.00927435
0.10086
0.00882571
0.0996954
0.00840131
0.0985596
0.00799998
0.097454
0.00762054
0.0963795
0.00726177
0.0953367
0.00692247
0.0943259
0.00660148
0.093347
0.00629766
0.0923998
0.00600994
0.091484
0.00573731
0.0905989
0.0054788
0.0897441
0.00523349
0.0889189
0.00500055
0.0881226
0.00477916
0.0873544
0.00456859
0.0866137
0.00436813
0.0858996
0.00417713
0.0852114
0.00399497
0.0845483
0.0038211
0.0839097
0.00365497
0.0832947
0.00349608
0.0827028
0.00334396
0.0821332
0.00319818
0.0815852
0.00305832
0.0810582
0.002924
0.0805517
0.00279485
0.080065
0.00267052
0.0795975
0.00255069
0.0791489
0.00243505
0.0787185
0.0023233
0.0783058
0.00221517
0.0779105
0.00211039
0.0775321
0.0020087
0.0771703
0.00190985
0.0768246
0.0018136
0.0764947
0.00171972
0.0761803
0.00162798
0.0758811
0.00153816
0.0755969
0.00145003
0.0753274
0.00136338
0.0750725
0.00127797
0.0748319
0.00119359
0.0746056
0.00111001
0.0743933
0.00102698
0.074195
0.000944262
0.0740107
0.000861593
0.0738404
0.000778699
0.0736839
0.000695283
0.0735415
0.000611025
0.0734131
0.000525576
0.0732989
0.000438547
0.0731991
0.000349506
0.0731138
0.000257966
0.0730433
0.000163372
0.0729879
6.50866e-05
0.0729479
-3.76256e-05
0.0729236
-0.000145624
0.0729154
-0.000259919
0.0729237
-0.000381704
0.0729488
-0.000512395
0.072991
-0.000653683
0.0730503
-0.000807583
0.0731265
-0.000976489
0.0732191
-0.00116323
0.0733264
-0.0013711
0.0734462
-0.00160382
0.0735742
-0.00186543
0.0737044
-0.00215998
0.0738283
-0.00249094
0.0739345
-0.00286022
0.0740098
-0.00326676
0.074041
-0.00370477
-0.00416232
0.0740186
0.10027
0.00129974
0.10109
0.00395084
0.102398
0.00653216
0.104073
0.00891974
0.105976
0.0110338
0.107967
0.0128301
0.109919
0.01429
0.111727
0.0154159
0.113318
0.016227
0.114643
0.0167534
0.11568
0.0170315
0.116426
0.0170998
0.116891
0.0169963
0.117098
0.0167564
0.117073
0.0164113
0.116845
0.0159882
0.116443
0.0155096
0.115895
0.0149941
0.115226
0.0144562
0.114459
0.0139078
0.113615
0.0133576
0.112711
0.0128125
0.111762
0.0122774
0.110781
0.0117559
0.109779
0.0112505
0.108764
0.0107628
0.107745
0.0102937
0.106727
0.00984373
0.105715
0.00941292
0.104714
0.00900108
0.103727
0.00860782
0.102756
0.00823259
0.101804
0.00787475
0.100871
0.00753361
0.0999606
0.00720843
0.0990721
0.00689846
0.0982065
0.00660295
0.0973641
0.00632115
0.0965453
0.00605235
0.09575
0.00579583
0.0949782
0.00555091
0.0942299
0.00531696
0.0935046
0.00509335
0.0928023
0.00487949
0.0921224
0.00467481
0.0914648
0.00447877
0.0908289
0.00429089
0.0902143
0.00411066
0.0896206
0.00393763
0.0890474
0.00377138
0.0884942
0.00361149
0.0879607
0.00345757
0.0874463
0.00330926
0.0869506
0.00316618
0.0864733
0.00302802
0.0860139
0.00289445
0.085572
0.00276516
0.0851473
0.00263986
0.0847395
0.00251825
0.0843481
0.00240008
0.0839729
0.00228506
0.0836135
0.00217295
0.0832697
0.00206349
0.0829413
0.00195643
0.0826279
0.00185153
0.0823294
0.00174854
0.0820455
0.00164722
0.0817762
0.00154733
0.0815212
0.00144861
0.0812804
0.00135082
0.0810537
0.00125369
0.080841
0.00115694
0.0806423
0.0010603
0.0804575
0.000963465
0.0802867
0.000866106
0.0801298
0.000767878
0.079987
0.000668403
0.0798583
0.000567265
0.0797438
0.000464005
0.0796436
0.000358107
0.079558
0.000248992
0.0794871
0.000136005
0.0794311
1.83959e-05
0.0793901
-0.000104697
0.0793645
-0.000234268
0.0793542
-0.000371469
0.0793595
-0.000517638
0.0793801
-0.000674327
0.0794159
-0.000843334
0.0794661
-0.00102672
0.0795297
-0.00122684
0.0796049
-0.00144627
0.0796889
-0.00168781
0.0797777
-0.00195425
0.0798658
-0.00224812
0.0799461
-0.00257121
0.0800097
-0.00292386
0.0800471
-0.00330411
0.080049
-0.00370672
-0.0041226
0.0800093
0.100202
0.00109744
0.100821
0.00333194
0.101827
0.00552653
0.103151
0.00759517
0.104708
0.00947751
0.106402
0.0111356
0.108144
0.0125484
0.10985
0.0137092
0.111454
0.0146231
0.112904
0.0153041
0.114163
0.0157723
0.115211
0.0160512
0.116042
0.0161661
0.116656
0.0161422
0.117064
0.0160036
0.11728
0.0157723
0.117321
0.015468
0.117207
0.0151078
0.116957
0.0147063
0.11659
0.0142756
0.116122
0.0138257
0.115569
0.013365
0.114947
0.0128997
0.114268
0.0124351
0.113543
0.0119752
0.112783
0.011523
0.111996
0.0110807
0.11119
0.01065
0.11037
0.0102321
0.109544
0.00982761
0.108715
0.00943705
0.107887
0.00906056
0.107063
0.00869815
0.106247
0.00834965
0.105441
0.00801479
0.104646
0.00769324
0.103864
0.00738457
0.103097
0.00708835
0.102346
0.00680411
0.10161
0.00653135
0.100891
0.00626959
0.10019
0.00601833
0.0995062
0.00577707
0.0988404
0.00554535
0.0981925
0.00532269
0.0975626
0.00510862
0.0969508
0.00490272
0.0963569
0.00470455
0.0957808
0.0045137
0.0952225
0.00432977
0.0946816
0.00415238
0.094158
0.00398116
0.0936515
0.00381576
0.0931618
0.00365582
0.0926888
0.00350104
0.0922322
0.00335107
0.0917917
0.00320563
0.0913672
0.00306441
0.0909583
0.00292713
0.0905649
0.0027935
0.0901867
0.00266325
0.0898235
0.00253612
0.0894752
0.00241183
0.0891415
0.00229014
0.0888222
0.00217078
0.0885173
0.00205349
0.0882265
0.00193802
0.0879497
0.00182411
0.0876868
0.00171149
0.0874378
0.00159989
0.0872024
0.00148903
0.0869808
0.00137862
0.0867727
0.00126835
0.0865783
0.00115791
0.0863974
0.00104696
0.0862302
0.000935119
0.0860766
0.000821997
0.0859367
0.00070716
0.0858105
0.000590131
0.0856983
0.000470383
0.0855999
0.000347328
0.0855156
0.000220309
0.0854454
8.85821e-05
0.0853894
-4.869e-05
0.0853476
-0.000192459
0.0853199
-0.000343807
0.0853063
-0.000503958
0.0853062
-0.000674301
0.0853193
-0.000856394
0.0853445
-0.00105197
0.0853806
-0.0012629
0.0854255
-0.00149118
0.0854765
-0.00173881
0.0855299
-0.00200765
0.0855809
-0.00229914
0.0856237
-0.00261399
0.0856515
-0.00295166
0.0856572
-0.00330986
0.0856346
-0.00368406
-0.00406727
0.0855792
0.100156
0.000941254
0.100635
0.00285316
0.101422
0.00473994
0.102476
0.00654059
0.103744
0.00820975
0.105163
0.00971658
0.10667
0.0110417
0.108203
0.0121755
0.109709
0.0131172
0.111141
0.0138721
0.112463
0.0144508
0.113647
0.0148669
0.114677
0.0151364
0.115543
0.0152764
0.116242
0.0153038
0.116779
0.0152355
0.11716
0.015087
0.117395
0.0148727
0.117496
0.0146053
0.117476
0.0142961
0.117346
0.013955
0.117121
0.0135903
0.116812
0.0132091
0.11643
0.0128171
0.115985
0.0124193
0.115489
0.0120195
0.114949
0.0116211
0.114372
0.0112264
0.113767
0.0108376
0.113138
0.0104561
0.112492
0.0100831
0.111833
0.00971943
0.111166
0.00936567
0.110493
0.00902222
0.109819
0.00868929
0.109145
0.00836695
0.108474
0.00805518
0.107809
0.00775386
0.10715
0.00746282
0.1065
0.00718181
0.105859
0.00691058
0.105228
0.00664882
0.104609
0.00639622
0.104002
0.00615244
0.103407
0.00591714
0.102826
0.00568998
0.102258
0.0054706
0.101704
0.00525868
0.101164
0.00505385
0.100638
0.00485579
0.100126
0.00466417
0.0996286
0.00447865
0.0991454
0.00429893
0.0986765
0.00412469
0.098222
0.00395562
0.0977816
0.00379143
0.0973554
0.00363184
0.0969433
0.00347655
0.0965451
0.00332528
0.0961608
0.00317776
0.0957904
0.00303373
0.0954336
0.00289291
0.0950904
0.00275505
0.0947606
0.00261987
0.0944443
0.00248712
0.0941413
0.00235653
0.0938514
0.00222784
0.0935748
0.00210078
0.0933112
0.00197508
0.0930606
0.00185045
0.092823
0.0017266
0.0925984
0.00160324
0.0923867
0.00148005
0.0921879
0.00135669
0.0920021
0.00123281
0.0918292
0.00110804
0.0916692
0.000981957
0.0915222
0.000854131
0.0913883
0.000724078
0.0912674
0.000591271
0.0911596
0.000455126
0.0910649
0.000315
0.0909833
0.000170177
0.0909148
1.98575e-05
0.0908591
-0.000136846
0.0908163
-0.000300924
0.0907858
-0.000473473
0.0907672
-0.000655704
0.0907597
-0.000848935
0.0907623
-0.00105458
0.0907735
-0.00127411
0.0907913
-0.00150901
0.0908132
-0.00176065
0.0908357
-0.0020302
0.090855
-0.00231836
0.0908661
-0.00262516
0.0908641
-0.0029496
0.0908436
-0.00328938
0.0908002
-0.00364064
-0.00399794
0.0907308
0.100124
0.000817551
0.100503
0.00247428
0.101129
0.00411368
0.101978
0.00569134
0.103015
0.00717284
0.104198
0.00853345
0.105483
0.00975644
0.106827
0.0108322
0.108186
0.0117573
0.109525
0.0125332
0.110811
0.013165
0.112017
0.0136606
0.113124
0.0140299
0.114116
0.0142839
0.114986
0.0144344
0.115728
0.0144935
0.116342
0.0144727
0.116831
0.0143833
0.117201
0.0142358
0.117457
0.0140398
0.117608
0.0138039
0.117663
0.0135359
0.117629
0.0132425
0.117517
0.0129296
0.117334
0.0126024
0.117088
0.012265
0.116788
0.0119213
0.11644
0.0115742
0.116052
0.0112263
0.115628
0.0108797
0.115175
0.010536
0.114698
0.0101968
0.114201
0.00986294
0.113687
0.00953541
0.113162
0.00921482
0.112627
0.00890164
0.112086
0.00859619
0.111541
0.0082987
0.110995
0.00800927
0.110449
0.00772795
0.109905
0.0074547
0.109364
0.00718943
0.108828
0.00693202
0.108298
0.00668231
0.107775
0.0064401
0.10726
0.00620518
0.106753
0.00597732
0.106256
0.00575628
0.105768
0.00554182
0.10529
0.00533368
0.104823
0.00513159
0.104366
0.00493529
0.10392
0.00474453
0.103486
0.00455903
0.103063
0.00437853
0.102652
0.00420278
0.102252
0.0040315
0.101864
0.00386445
0.101488
0.00370136
0.101124
0.00354197
0.100772
0.00338604
0.100431
0.0032333
0.100103
0.00308351
0.0997862
0.0029364
0.0994815
0.00279172
0.0991889
0.00264921
0.0989081
0.0025086
0.0986393
0.00236963
0.0983823
0.00223202
0.0981373
0.00209548
0.0979041
0.00195973
0.0976829
0.00182446
0.0974736
0.00168934
0.0972763
0.00155405
0.0970909
0.00141821
0.0969175
0.00128147
0.096756
0.00114339
0.0966066
0.00100356
0.0964692
0.000861485
0.0963438
0.000716655
0.0962304
0.000568504
0.096129
0.000416415
0.0960395
0.00025971
0.0959617
9.76469e-05
0.0958954
-7.05887e-05
0.0958404
-0.000245884
0.0957961
-0.000429203
0.095762
-0.000621577
0.0957371
-0.0008241
0.0957204
-0.0010379
0.0957104
-0.0012641
0.0957052
-0.00150376
0.0957023
-0.00175781
0.095699
-0.00202687
0.0956918
-0.00231118
0.095677
-0.00261035
0.0956506
-0.00292318
0.0956087
-0.0032475
0.0955481
-0.00358005
-0.00391652
0.0954667
0.1001
0.000717459
0.100406
0.00216837
0.100913
0.00360642
0.101606
0.00499839
0.102461
0.00631777
0.10345
0.00754464
0.104542
0.00866489
0.105704
0.00966966
0.106907
0.0105547
0.10812
0.0113196
0.109319
0.0119667
0.110479
0.0125006
0.111581
0.0129273
0.112611
0.0132542
0.113556
0.0134892
0.114409
0.0136408
0.115164
0.0137176
0.11582
0.0137278
0.116376
0.0136797
0.116835
0.013581
0.1172
0.0134389
0.117476
0.0132599
0.117668
0.0130503
0.117782
0.0128152
0.117825
0.0125597
0.117802
0.0122879
0.11772
0.0120036
0.117584
0.0117101
0.1174
0.01141
0.117174
0.0111059
0.11691
0.0107997
0.116614
0.0104932
0.116289
0.0101878
0.11594
0.00988469
0.11557
0.00958485
0.115182
0.00928908
0.11478
0.00899802
0.114367
0.00871216
0.113944
0.00843189
0.113515
0.00815747
0.11308
0.00788912
0.112643
0.00762694
0.112204
0.00737101
0.111765
0.00712133
0.111327
0.00687786
0.110892
0.00664054
0.11046
0.00640926
0.110032
0.0061839
0.10961
0.00596431
0.109193
0.00575034
0.108783
0.0055418
0.108379
0.0053385
0.107984
0.00514026
0.107596
0.00494685
0.107216
0.00475808
0.106845
0.00457373
0.106483
0.00439358
0.10613
0.0042174
0.105787
0.00404497
0.105453
0.00387607
0.105128
0.00371045
0.104814
0.00354789
0.104509
0.00338815
0.104214
0.00323098
0.10393
0.00307615
0.103656
0.0029234
0.103392
0.00277248
0.103138
0.00262313
0.102895
0.00247508
0.102663
0.00232805
0.102441
0.00218174
0.102229
0.00203587
0.102029
0.0018901
0.101839
0.00174411
0.101659
0.00159755
0.101491
0.00145004
0.101333
0.00130118
0.101186
0.00115055
0.10105
0.000997674
0.100924
0.000842064
0.10081
0.000683183
0.100706
0.000520449
0.100612
0.000353233
0.100529
0.000180856
0.100456
2.58719e-06
0.100392
-0.000182356
0.100338
-0.000374801
0.100292
-0.000575615
0.100253
-0.000785685
0.100221
-0.00100589