/*--------------------------------*- C++ -*----------------------------------*\
| =========                 |                                                 |
| \\      /  F ield         | OpenFOAM: The Open Source CFD Toolbox           |
|  \\    /   O peration     | Version:  2406                                  |
|   \\  /    A nd           | Website:  www.openfoam.com                      |
|    \\/     M anipulation  |                                                 |
\*---------------------------------------------------------------------------*/
FoamFile
{
    version     2.0;
    format      ascii;
    arch        "LSB;label=32;scalar=64";
    class       volVectorField;
    location    "300";
    object      U;
}
// * * * * * * * * * * * * * * * * * * * * * * * * * * * * * * * * * * * * * //

dimensions      [0 1 -1 0 0 0 0];

internalField   nonuniform List<vector> 
150000
(
(7.94097 0.953544 0)
(6.69751 1.02915 0)
(5.17751 0.578429 0)
(3.9022 0.29437 0)
(3.1115 0.166101 0)
(2.60345 0.0998761 0)
(2.24738 0.0624337 0)
(1.98827 0.041416 0)
(1.7935 0.0293146 0)
(1.64163 0.0219095 0)
(1.51941 0.0170934 0)
(1.41858 0.0137917 0)
(1.33376 0.0114202 0)
(1.26123 0.00964749 0)
(1.19842 0.00827855 0)
(1.14341 0.00719367 0)
(1.0948 0.00631577 0)
(1.0515 0.00559315 0)
(1.01268 0.00498985 0)
(0.977667 0.00448009 0)
(0.94592 0.00404487 0)
(0.917003 0.00366993 0)
(0.890555 0.00334431 0)
(0.866276 0.0030595 0)
(0.843914 0.00280877 0)
(0.823256 0.00258676 0)
(0.80412 0.00238911 0)
(0.786349 0.0022123 0)
(0.769809 0.00205342 0)
(0.754382 0.00191004 0)
(0.739967 0.00178017 0)
(0.726473 0.00166209 0)
(0.713822 0.00155439 0)
(0.701944 0.00145583 0)
(0.690776 0.00136537 0)
(0.680263 0.00128211 0)
(0.670356 0.00120527 0)
(0.66101 0.00113419 0)
(0.652186 0.00106826 0)
(0.643847 0.00100697 0)
(0.63596 0.000949869 0)
(0.628497 0.000896553 0)
(0.62143 0.000846667 0)
(0.614735 0.000799894 0)
(0.60839 0.000755952 0)
(0.602374 0.000714587 0)
(0.596669 0.000675573 0)
(0.591258 0.000638704 0)
(0.586124 0.000603794 0)
(0.581255 0.000570676 0)
(0.576637 0.000539196 0)
(0.572257 0.000509213 0)
(0.568105 0.000480599 0)
(0.56417 0.000453234 0)
(0.560444 0.00042701 0)
(0.556917 0.000401824 0)
(0.553582 0.000377581 0)
(0.550432 0.000354191 0)
(0.54746 0.000331572 0)
(0.544661 0.00030964 0)
(0.542028 0.000288322 0)
(0.539558 0.000267541 0)
(0.537245 0.000247229 0)
(0.535087 0.000227312 0)
(0.53308 0.000207725 0)
(0.531222 0.000188395 0)
(0.529509 0.000169255 0)
(0.52794 0.000150232 0)
(0.526515 0.000131254 0)
(0.525231 0.000112242 0)
(0.52409 9.3117e-05 0)
(0.523091 7.37889e-05 0)
(0.522235 5.4167e-05 0)
(0.521524 3.41425e-05 0)
(0.520961 1.36048e-05 0)
(0.520548 -7.58206e-06 0)
(0.520289 -2.956e-05 0)
(0.52019 -5.25067e-05 0)
(0.520257 -7.66151e-05 0)
(0.520498 -0.000102129 0)
(0.520921 -0.000129321 0)
(0.521539 -0.000158537 0)
(0.522364 -0.000190177 0)
(0.523414 -0.00022476 0)
(0.524709 -0.000262915 0)
(0.526275 -0.000305484 0)
(0.528143 -0.000353579 0)
(0.530354 -0.000408844 0)
(0.532962 -0.000473832 0)
(0.53604 -0.000553028 0)
(0.539694 -0.000654945 0)
(0.544089 -0.000797058 0)
(0.54949 -0.00101679 0)
(0.556372 -0.00139864 0)
(0.565624 -0.00214441 0)
(0.578912 -0.00373353 0)
(0.599481 -0.00726019 0)
(0.635236 -0.0160271 0)
(0.708598 -0.046997 0)
(0.823542 -0.173939 0)
(10.2186 1.88712 0)
(10.3826 2.72493 0)
(9.62171 2.24106 0)
(8.49562 1.62032 0)
(7.47678 1.14055 0)
(6.64227 0.808005 0)
(5.96316 0.58646 0)
(5.41239 0.439608 0)
(4.96435 0.340474 0)
(4.59554 0.271571 0)
(4.28752 0.222107 0)
(4.02669 0.185464 0)
(3.80306 0.157531 0)
(3.60914 0.135702 0)
(3.43934 0.118272 0)
(3.28935 0.104101 0)
(3.15586 0.0923986 0)
(3.03626 0.0826058 0)
(2.92846 0.074316 0)
(2.83081 0.0672276 0)
(2.74192 0.0611123 0)
(2.66067 0.0557949 0)
(2.58613 0.0511382 0)
(2.51751 0.047034 0)
(2.45415 0.0433958 0)
(2.39547 0.0401536 0)
(2.341 0.0372501 0)
(2.29031 0.0346385 0)
(2.24305 0.0322795 0)
(2.19888 0.0301407 0)
(2.15755 0.0281945 0)
(2.11879 0.0264178 0)
(2.0824 0.0247906 0)
(2.04818 0.0232962 0)
(2.01597 0.0219197 0)
(1.98561 0.0206487 0)
(1.95695 0.0194721 0)
(1.92989 0.0183804 0)
(1.90431 0.0173651 0)
(1.8801 0.0164188 0)
(1.85718 0.0155351 0)
(1.83547 0.0147082 0)
(1.81488 0.0139328 0)
(1.79536 0.0132045 0)
(1.77683 0.012519 0)
(1.75925 0.0118728 0)
(1.74255 0.0112624 0)
(1.72669 0.0106849 0)
(1.71163 0.0101375 0)
(1.69733 0.00961776 0)
(1.68375 0.00912342 0)
(1.67085 0.00865238 0)
(1.6586 0.00820275 0)
(1.64698 0.00777276 0)
(1.63595 0.00736079 0)
(1.6255 0.00696533 0)
(1.61559 0.00658497 0)
(1.60622 0.00621838 0)
(1.59736 0.00586432 0)
(1.58899 0.00552161 0)
(1.5811 0.00518912 0)
(1.57368 0.00486578 0)
(1.5667 0.00455055 0)
(1.56017 0.0042424 0)
(1.55407 0.00394036 0)
(1.54839 0.00364341 0)
(1.54313 0.00335059 0)
(1.53828 0.00306089 0)
(1.53383 0.00277328 0)
(1.52979 0.00248671 0)
(1.52615 0.00220007 0)
(1.52291 0.00191216 0)
(1.52007 0.00162173 0)
(1.51765 0.00132738 0)
(1.51563 0.00102759 0)
(1.51404 0.000720645 0)
(1.51287 0.000404604 0)
(1.51215 7.72341e-05 0)
(1.51189 -0.000264057 0)
(1.51211 -0.000622336 0)
(1.51283 -0.00100126 0)
(1.51408 -0.00140528 0)
(1.5159 -0.00183987 0)
(1.51833 -0.00231189 0)
(1.52143 -0.00283016 0)
(1.52526 -0.0034063 0)
(1.52991 -0.00405613 0)
(1.53549 -0.0048021 0)
(1.54213 -0.00567775 0)
(1.55003 -0.00673589 0)
(1.55947 -0.00806462 0)
(1.57082 -0.00981876 0)
(1.58467 -0.0122829 0)
(1.60194 -0.015999 0)
(1.6241 -0.0220293 0)
(1.65347 -0.0324809 0)
(1.69388 -0.0514902 0)
(1.75199 -0.0872059 0)
(1.83721 -0.15678 0)
(1.93402 -0.294376 0)
(10.1768 1.34551 0)
(10.7882 2.53793 0)
(10.9413 2.66461 0)
(10.5996 2.36737 0)
(10.0102 1.96113 0)
(9.34909 1.57585 0)
(8.70071 1.25805 0)
(8.10423 1.01151 0)
(7.5731 0.824026 0)
(7.10649 0.681435 0)
(6.69786 0.571947 0)
(6.33943 0.486689 0)
(6.02376 0.419248 0)
(5.74432 0.365064 0)
(5.49557 0.320886 0)
(5.27293 0.284381 0)
(5.07261 0.253849 0)
(4.89151 0.228034 0)
(4.72704 0.205994 0)
(4.57705 0.187013 0)
(4.43976 0.170538 0)
(4.31364 0.156135 0)
(4.19743 0.143464 0)
(4.09003 0.132251 0)
(3.9905 0.122274 0)
(3.89805 0.113353 0)
(3.81197 0.105341 0)
(3.73166 0.0981149 0)
(3.6566 0.0915718 0)
(3.5863 0.0856259 0)
(3.52037 0.0802043 0)
(3.45844 0.0752452 0)
(3.40018 0.0706957 0)
(3.3453 0.0665102 0)
(3.29356 0.0626495 0)
(3.24471 0.0590793 0)
(3.19855 0.05577 0)
(3.15489 0.0526956 0)
(3.11356 0.0498333 0)
(3.07441 0.0471627 0)
(3.03729 0.0446662 0)
(3.00208 0.0423278 0)
(2.96866 0.0401335 0)
(2.93693 0.0380705 0)
(2.90679 0.0361277 0)
(2.87814 0.0342947 0)
(2.85091 0.0325625 0)
(2.82502 0.0309226 0)
(2.8004 0.0293675 0)
(2.777 0.0278904 0)
(2.75474 0.0264849 0)
(2.73357 0.0251453 0)
(2.71346 0.0238662 0)
(2.69434 0.0226429 0)
(2.67618 0.0214708 0)
(2.65894 0.0203456 0)
(2.64258 0.0192634 0)
(2.62707 0.0182206 0)
(2.61238 0.0172137 0)
(2.59848 0.0162394 0)
(2.58535 0.0152945 0)
(2.57296 0.0143761 0)
(2.5613 0.0134814 0)
(2.55034 0.0126073 0)
(2.54007 0.0117513 0)
(2.53048 0.0109106 0)
(2.52156 0.0100825 0)
(2.51328 0.00926419 0)
(2.50566 0.00845289 0)
(2.49867 0.00764571 0)
(2.49233 0.00683962 0)
(2.48662 0.00603142 0)
(2.48155 0.00521767 0)
(2.47712 0.00439464 0)
(2.47334 0.00355821 0)
(2.47022 0.0027038 0)
(2.46778 0.00182621 0)
(2.46603 0.000919499 0)
(2.465 -2.32399e-05 0)
(2.4647 -0.00101014 0)
(2.46519 -0.00205092 0)
(2.46649 -0.00315736 0)
(2.46867 -0.00434401 0)
(2.47178 -0.00562909 0)
(2.4759 -0.00703599 0)
(2.48112 -0.00859541 0)
(2.48758 -0.0103489 0)
(2.49541 -0.0123543 0)
(2.50482 -0.0146959 0)
(2.51607 -0.0175004 0)
(2.5295 -0.0209668 0)
(2.54559 -0.0254192 0)
(2.56501 -0.031401 0)
(2.58869 -0.0398454 0)
(2.61791 -0.0523742 0)
(2.65434 -0.0717981 0)
(2.69997 -0.102868 0)
(2.75664 -0.153322 0)
(2.82324 -0.234957 0)
(2.88309 -0.359511 0)
(10.0798 0.82339 0)
(10.5966 1.94648 0)
(11.0631 2.45325 0)
(11.2348 2.53052 0)
(11.1193 2.36868 0)
(10.8128 2.10341 0)
(10.4014 1.81884 0)
(9.94678 1.55619 0)
(9.48847 1.32961 0)
(9.04828 1.14018 0)
(8.63647 0.983868 0)
(8.25663 0.855237 0)
(7.90882 0.74906 0)
(7.59131 0.660874 0)
(7.30165 0.587071 0)
(7.03716 0.524801 0)
(6.79524 0.471832 0)
(6.57349 0.426422 0)
(6.36976 0.387203 0)
(6.18211 0.353096 0)
(6.00887 0.323245 0)
(5.84854 0.296962 0)
(5.69983 0.273693 0)
(5.5616 0.252988 0)
(5.43284 0.234476 0)
(5.31268 0.217854 0)
(5.20034 0.202865 0)
(5.09514 0.1893 0)
(4.99646 0.176978 0)
(4.90376 0.165749 0)
(4.81656 0.155483 0)
(4.73443 0.14607 0)
(4.65699 0.137416 0)
(4.58387 0.129438 0)
(4.51477 0.122065 0)
(4.44941 0.115235 0)
(4.38753 0.108894 0)
(4.3289 0.102995 0)
(4.27329 0.0974944 0)
(4.22053 0.092356 0)
(4.17044 0.0875467 0)
(4.12284 0.083037 0)
(4.0776 0.0788007 0)
(4.03459 0.0748143 0)
(3.99366 0.0710565 0)
(3.95472 0.0675084 0)
(3.91766 0.0641527 0)
(3.88237 0.0609737 0)
(3.84878 0.0579573 0)
(3.81679 0.0550904 0)
(3.78633 0.0523611 0)
(3.75734 0.0497587 0)
(3.72973 0.047273 0)
(3.70347 0.0448948 0)
(3.67848 0.0426155 0)
(3.65472 0.0404272 0)
(3.63214 0.0383223 0)
(3.6107 0.0362939 0)
(3.59035 0.0343353 0)
(3.57107 0.0324404 0)
(3.55282 0.0306031 0)
(3.53556 0.0288179 0)
(3.51927 0.0270791 0)
(3.50392 0.0253815 0)
(3.4895 0.0237199 0)
(3.47598 0.022089 0)
(3.46335 0.0204837 0)
(3.4516 0.0188989 0)
(3.4407 0.0173293 0)
(3.43066 0.0157694 0)
(3.42147 0.0142135 0)
(3.41312 0.0126558 0)
(3.40562 0.0110897 0)
(3.39897 0.00950845 0)
(3.39318 0.00790436 0)
(3.38825 0.00626899 0)
(3.38421 0.00459284 0)
(3.38107 0.00286502 0)
(3.37887 0.00107295 0)
(3.37763 -0.000798142 0)
(3.37739 -0.00276584 0)
(3.37821 -0.00485141 0)
(3.38014 -0.00708093 0)
(3.38325 -0.00948702 0)
(3.38764 -0.0121112 0)
(3.39342 -0.0150074 0)
(3.40071 -0.0182478 0)
(3.4097 -0.0219309 0)
(3.42059 -0.0261959 0)
(3.43365 -0.0312446 0)
(3.44923 -0.037379 0)
(3.46776 -0.0450613 0)
(3.48981 -0.0550134 0)
(3.51604 -0.0683739 0)
(3.54721 -0.0869351 0)
(3.584 -0.113461 0)
(3.62659 -0.152009 0)
(3.67381 -0.207997 0)
(3.72117 -0.287214 0)
(3.75666 -0.390718 0)
(10.0426 0.54631 0)
(10.395 1.45866 0)
(10.8535 2.05159 0)
(11.2147 2.33749 0)
(11.3916 2.39308 0)
(11.3903 2.30043 0)
(11.2488 2.1289 0)
(11.0103 1.92721 0)
(10.7131 1.72424 0)
(10.3867 1.53467 0)
(10.051 1.36453 0)
(9.71865 1.21507 0)
(9.39737 1.08517 0)
(9.09125 0.972749 0)
(8.80219 0.875491 0)
(8.53074 0.791183 0)
(8.27664 0.717857 0)
(8.03916 0.65382 0)
(7.81736 0.597648 0)
(7.6102 0.54815 0)
(7.4166 0.504334 0)
(7.23555 0.465377 0)
(7.06607 0.430593 0)
(6.90724 0.399409 0)
(6.75824 0.371344 0)
(6.61828 0.345994 0)
(6.48667 0.323017 0)
(6.36278 0.302122 0)
(6.24602 0.283062 0)
(6.13587 0.265625 0)
(6.03184 0.249627 0)
(5.9335 0.234913 0)
(5.84045 0.221343 0)
(5.75234 0.208801 0)
(5.66883 0.19718 0)
(5.58962 0.186392 0)
(5.51444 0.176354 0)
(5.44303 0.166996 0)
(5.37517 0.158255 0)
(5.31064 0.150076 0)
(5.24924 0.142409 0)
(5.1908 0.135209 0)
(5.13515 0.128436 0)
(5.08213 0.122054 0)
(5.03162 0.116031 0)
(4.98347 0.110338 0)
(4.93757 0.104948 0)
(4.8938 0.0998377 0)
(4.85206 0.0949841 0)
(4.81226 0.0903674 0)
(4.77431 0.0859693 0)
(4.73812 0.0817728 0)
(4.70362 0.0777622 0)
(4.67074 0.073923 0)
(4.63942 0.0702419 0)
(4.60958 0.0667064 0)
(4.58118 0.0633047 0)
(4.55417 0.0600258 0)
(4.52849 0.0568595 0)
(4.50411 0.0537958 0)
(4.48097 0.0508255 0)
(4.45906 0.0479395 0)
(4.43833 0.0451292 0)
(4.41875 0.0423863 0)
(4.40029 0.0397025 0)
(4.38294 0.0370697 0)
(4.36667 0.0344799 0)
(4.35146 0.0319249 0)
(4.3373 0.0293965 0)
(4.32418 0.0268862 0)
(4.31209 0.0243852 0)
(4.30103 0.0218843 0)
(4.29099 0.0193736 0)
(4.28197 0.0168425 0)
(4.27399 0.0142792 0)
(4.26705 0.0116709 0)
(4.26117 0.00900319 0)
(4.25637 0.00625952 0)
(4.25268 0.00342096 0)
(4.25013 0.000465369 0)
(4.24877 -0.00263346 0)
(4.24863 -0.00590702 0)
(4.24979 -0.0093937 0)
(4.25233 -0.0131411 0)
(4.25632 -0.0172091 0)
(4.26189 -0.0216746 0)
(4.26916 -0.0266385 0)
(4.27829 -0.0322358 0)
(4.28949 -0.038651 0)
(4.30298 -0.0461425 0)
(4.31905 -0.0550788 0)
(4.33803 -0.0659939 0)
(4.36028 -0.0796691 0)
(4.38615 -0.0972469 0)
(4.41585 -0.120374 0)
(4.44929 -0.151335 0)
(4.48559 -0.193067 0)
(4.52248 -0.248785 0)
(4.55537 -0.320667 0)
(4.57655 -0.406554 0)
(10.0236 0.385448 0)
(10.2537 1.09641 0)
(10.6178 1.64936 0)
(10.9919 2.01113 0)
(11.2854 2.199 0)
(11.4637 2.24871 0)
(11.5247 2.20101 0)
(11.4833 2.09315 0)
(11.3614 1.95387 0)
(11.1819 1.80283 0)
(10.9644 1.65227 0)
(10.7243 1.5091 0)
(10.473 1.37669 0)
(10.2186 1.25626 0)
(9.96675 1.14776 0)
(9.72093 1.05051 0)
(9.48342 0.963557 0)
(9.25553 0.885827 0)
(9.0379 0.816283 0)
(8.83074 0.753959 0)
(8.63397 0.697982 0)
(8.44732 0.647581 0)
(8.27043 0.60208 0)
(8.10283 0.560891 0)
(7.94408 0.523503 0)
(7.79367 0.489473 0)
(7.65115 0.458417 0)
(7.51604 0.430002 0)
(7.38791 0.403939 0)
(7.26633 0.379975 0)
(7.15091 0.357889 0)
(7.04129 0.33749 0)
(6.9371 0.318606 0)
(6.83804 0.301091 0)
(6.74381 0.284811 0)
(6.65411 0.269652 0)
(6.56869 0.255508 0)
(6.48732 0.24229 0)
(6.40976 0.229914 0)
(6.33581 0.218308 0)
(6.26528 0.207405 0)
(6.19798 0.197148 0)
(6.13374 0.187482 0)
(6.07242 0.178359 0)
(6.01386 0.169736 0)
(5.95794 0.161574 0)
(5.90452 0.153836 0)
(5.85349 0.14649 0)
(5.80474 0.139505 0)
(5.75817 0.132854 0)
(5.71368 0.126512 0)
(5.67119 0.120455 0)
(5.63061 0.114661 0)
(5.59187 0.109111 0)
(5.5549 0.103787 0)
(5.51963 0.0986693 0)
(5.48599 0.0937432 0)
(5.45394 0.088993 0)
(5.42342 0.0844043 0)
(5.39437 0.0799632 0)
(5.36677 0.0756567 0)
(5.34056 0.0714721 0)
(5.31571 0.0673975 0)
(5.29218 0.063421 0)
(5.26994 0.059531 0)
(5.24897 0.0557162 0)
(5.22924 0.0519653 0)
(5.21074 0.048267 0)
(5.19344 0.0446097 0)
(5.17733 0.0409816 0)
(5.16239 0.0373705 0)
(5.14864 0.0337635 0)
(5.13605 0.030147 0)
(5.12463 0.0265064 0)
(5.11439 0.0228256 0)
(5.10533 0.0190871 0)
(5.09747 0.0152712 0)
(5.09083 0.0113557 0)
(5.08543 0.00731514 0)
(5.08131 0.00311996 0)
(5.07851 -0.00126457 0)
(5.07706 -0.00587983 0)
(5.07705 -0.0107758 0)
(5.07852 -0.0160138 0)
(5.08157 -0.02167 0)
(5.0863 -0.0278406 0)
(5.09282 -0.0346494 0)
(5.10126 -0.0422576 0)
(5.11179 -0.0508795 0)
(5.12459 -0.0608038 0)
(5.13984 -0.0724242 0)
(5.15775 -0.0862823 0)
(5.17847 -0.103124 0)
(5.20206 -0.123964 0)
(5.22837 -0.150152 0)
(5.25684 -0.183382 0)
(5.28617 -0.225567 0)
(5.31403 -0.27839 0)
(5.3367 -0.342289 0)
(5.34936 -0.414648 0)
(10.0134 0.28391 0)
(10.1646 0.837063 0)
(10.4345 1.31424 0)
(10.7555 1.67856 0)
(11.061 1.92434 0)
(11.3107 2.06191 0)
(11.4852 2.11006 0)
(11.5795 2.09096 0)
(11.5989 2.02567 0)
(11.5548 1.93164 0)
(11.46 1.82211 0)
(11.3269 1.70643 0)
(11.1665 1.59077 0)
(10.9878 1.47898 0)
(10.7977 1.37321 0)
(10.6018 1.27453 0)
(10.404 1.18327 0)
(10.2073 1.09936 0)
(10.0137 1.02246 0)
(9.82467 0.952103 0)
(9.64122 0.887773 0)
(9.46392 0.828942 0)
(9.29313 0.775102 0)
(9.129 0.725775 0)
(8.97154 0.680519 0)
(8.82069 0.638936 0)
(8.6763 0.600662 0)
(8.53818 0.565374 0)
(8.40612 0.532782 0)
(8.27989 0.502627 0)
(8.15926 0.474677 0)
(8.04396 0.448726 0)
(7.93378 0.42459 0)
(7.82847 0.402103 0)
(7.7278 0.38112 0)
(7.63156 0.361506 0)
(7.53954 0.343146 0)
(7.45153 0.32593 0)
(7.36735 0.309765 0)
(7.28681 0.294564 0)
(7.20975 0.280247 0)
(7.136 0.266745 0)
(7.06541 0.253994 0)
(6.99784 0.241934 0)
(6.93316 0.230514 0)
(6.87123 0.219683 0)
(6.81194 0.209398 0)
(6.75517 0.199618 0)
(6.70082 0.190306 0)
(6.64879 0.181427 0)
(6.59899 0.172949 0)
(6.55133 0.164842 0)
(6.50572 0.15708 0)
(6.4621 0.149637 0)
(6.42039 0.14249 0)
(6.38052 0.135615 0)
(6.34243 0.128992 0)
(6.30606 0.122601 0)
(6.27136 0.116425 0)
(6.23827 0.110444 0)
(6.20676 0.104642 0)
(6.17677 0.0990034 0)
(6.14827 0.0935115 0)
(6.12123 0.0881514 0)
(6.0956 0.0829082 0)
(6.07137 0.0777671 0)
(6.0485 0.0727134 0)
(6.02698 0.0677325 0)
(6.00677 0.0628093 0)
(5.98788 0.0579287 0)
(5.97028 0.0530749 0)
(5.95397 0.0482314 0)
(5.93894 0.0433806 0)
(5.92519 0.0385039 0)
(5.91273 0.033581 0)
(5.90155 0.0285897 0)
(5.89168 0.0235051 0)
(5.88313 0.0182996 0)
(5.87592 0.0129415 0)
(5.87008 0.00739436 0)
(5.86564 0.00161576 0)
(5.86265 -0.00444443 0)
(5.86116 -0.0108461 0)
(5.86123 -0.0176617 0)
(5.86293 -0.02498 0)
(5.86635 -0.0329111 0)
(5.87156 -0.0415936 0)
(5.87868 -0.0512036 0)
(5.88781 -0.0619677 0)
(5.89907 -0.0741805 0)
(5.91256 -0.0882265 0)
(5.92835 -0.104609 0)
(5.94644 -0.123982 0)
(5.96668 -0.147178 0)
(5.98871 -0.175218 0)
(6.01177 -0.209267 0)
(6.03453 -0.250468 0)
(6.05496 -0.299575 0)
(6.07031 -0.35629 0)
(6.07758 -0.418339 0)
(10.0083 0.218025 0)
(10.1103 0.654685 0)
(10.3067 1.05488 0)
(10.5624 1.38927 0)
(10.8345 1.64631 0)
(11.0904 1.82545 0)
(11.3083 1.93305 0)
(11.4751 1.97991 0)
(11.586 1.97871 0)
(11.6422 1.94182 0)
(11.6491 1.88012 0)
(11.6138 1.80249 0)
(11.5438 1.71578 0)
(11.4465 1.62502 0)
(11.3284 1.53372 0)
(11.195 1.44425 0)
(11.0509 1.35811 0)
(10.8999 1.27617 0)
(10.7449 1.1989 0)
(10.5883 1.12643 0)
(10.4317 1.05875 0)
(10.2766 0.99569 0)
(10.1239 0.937029 0)
(9.97442 0.882503 0)
(9.82865 0.831833 0)
(9.68696 0.784738 0)
(9.54958 0.740945 0)
(9.41665 0.700193 0)
(9.28823 0.662239 0)
(9.16432 0.626855 0)
(9.04488 0.593832 0)
(8.92986 0.562977 0)
(8.81914 0.534112 0)
(8.71263 0.507078 0)
(8.6102 0.481727 0)
(8.51173 0.457925 0)
(8.4171 0.435549 0)
(8.32615 0.414489 0)
(8.23878 0.394641 0)
(8.15484 0.375914 0)
(8.0742 0.358223 0)
(7.99675 0.341489 0)
(7.92237 0.325642 0)
(7.85093 0.310618 0)
(7.78233 0.296355 0)
(7.71646 0.282799 0)
(7.65322 0.269899 0)
(7.59251 0.257609 0)
(7.53424 0.245885 0)
(7.47831 0.234687 0)
(7.42465 0.223978 0)
(7.37318 0.213723 0)
(7.32383 0.203891 0)
(7.27651 0.19445 0)
(7.23117 0.185373 0)
(7.18773 0.176633 0)
(7.14615 0.168206 0)
(7.10637 0.160066 0)
(7.06833 0.152193 0)
(7.03198 0.144564 0)
(6.99729 0.137159 0)
(6.9642 0.129958 0)
(6.93268 0.122942 0)
(6.9027 0.116092 0)
(6.87422 0.109391 0)
(6.84721 0.10282 0)
(6.82165 0.0963605 0)
(6.79752 0.0899955 0)
(6.77478 0.0837065 0)
(6.75344 0.0774748 0)
(6.73347 0.0712812 0)
(6.71487 0.0651056 0)
(6.69762 0.0589268 0)
(6.68173 0.0527224 0)
(6.66719 0.0464678 0)
(6.65402 0.0401366 0)
(6.64221 0.0336993 0)
(6.63179 0.027123 0)
(6.62277 0.0203709 0)
(6.61518 0.0134003 0)
(6.60904 0.0061626 0)
(6.60439 -0.00139952 0)
(6.60127 -0.00935342 0)
(6.59973 -0.0177796 0)
(6.59982 -0.0267749 0)
(6.6016 -0.0364577 0)
(6.60514 -0.0469729 0)
(6.6105 -0.0585005 0)
(6.61774 -0.071265 0)
(6.62691 -0.0855475 0)
(6.63803 -0.1017 0)
(6.65109 -0.120163 0)
(6.66595 -0.141474 0)
(6.68237 -0.166278 0)
(6.69987 -0.195303 0)
(6.71766 -0.229299 0)
(6.73456 -0.268889 0)
(6.74894 -0.314305 0)
(6.75885 -0.364992 0)
(6.76236 -0.41916 0)
(10.0055 0.173544 0)
(10.0768 0.525088 0)
(10.2204 0.858692 0)
(10.4186 1.15341 0)
(10.6449 1.39818 0)
(10.8768 1.58885 0)
(11.096 1.72601 0)
(11.2886 1.81384 0)
(11.4457 1.85886 0)
(11.5633 1.86858 0)
(11.6409 1.85054 0)
(11.6807 1.81168 0)
(11.6863 1.75799 0)
(11.6622 1.69438 0)
(11.613 1.62472 0)
(11.5433 1.55198 0)
(11.4572 1.47834 0)
(11.3582 1.40536 0)
(11.2495 1.33413 0)
(11.1337 1.26535 0)
(11.013 1.19948 0)
(10.8892 1.13676 0)
(10.7637 1.07728 0)
(10.6378 1.02104 0)
(10.5122 0.967995 0)
(10.3879 0.918023 0)
(10.2653 0.870991 0)
(10.1449 0.826747 0)
(10.0271 0.785133 0)
(9.91202 0.745988 0)
(9.79992 0.709157 0)
(9.69089 0.674486 0)
(9.58502 0.641831 0)
(9.48234 0.611053 0)
(9.38286 0.582025 0)
(9.28656 0.554623 0)
(9.19342 0.528736 0)
(9.10338 0.504259 0)
(9.01641 0.481092 0)
(8.93242 0.459147 0)
(8.85136 0.438338 0)
(8.77316 0.418588 0)
(8.69773 0.399824 0)
(8.62501 0.381979 0)
(8.55491 0.36499 0)
(8.48737 0.348801 0)
(8.4223 0.333357 0)
(8.35964 0.318608 0)
(8.29931 0.304508 0)
(8.24125 0.291012 0)
(8.18538 0.278081 0)
(8.13165 0.265675 0)
(8.07999 0.253761 0)
(8.03034 0.242303 0)
(7.98265 0.23127 0)
(7.93686 0.220632 0)
(7.89292 0.210361 0)
(7.85078 0.200431 0)
(7.81039 0.190814 0)
(7.77172 0.181488 0)
(7.73471 0.172427 0)
(7.69934 0.16361 0)
(7.66557 0.155014 0)
(7.63336 0.146617 0)
(7.60269 0.138398 0)
(7.57353 0.130337 0)
(7.54585 0.122412 0)
(7.51964 0.114603 0)
(7.49487 0.106888 0)
(7.47152 0.0992447 0)
(7.44959 0.0916518 0)
(7.42907 0.0840856 0)
(7.40994 0.0765215 0)
(7.39221 0.0689336 0)
(7.37587 0.0612936 0)
(7.36092 0.0535713 0)
(7.34738 0.0457332 0)
(7.33525 0.0377423 0)
(7.32454 0.0295569 0)
(7.31528 0.02113 0)
(7.30749 0.0124078 0)
(7.30118 0.00332813 0)
(7.2964 -0.00618139 0)
(7.29318 -0.0162059 0)
(7.29154 -0.0268462 0)
(7.29154 -0.0382229 0)
(7.2932 -0.0504805 0)
(7.29656 -0.0637939 0)
(7.30163 -0.0783743 0)
(7.30842 -0.0944774 0)
(7.31688 -0.112411 0)
(7.32691 -0.132539 0)
(7.33834 -0.155288 0)
(7.35084 -0.181131 0)
(7.36392 -0.210563 0)
(7.37686 -0.244033 0)
(7.38867 -0.281835 0)
(7.39809 -0.323928 0)
(7.40373 -0.369712 0)
(7.40436 -0.417825 0)
(10.004 0.142088 0)
(10.0556 0.430844 0)
(10.1623 0.710336 0)
(10.3152 0.966106 0)
(10.4981 1.1892 0)
(10.6963 1.37496 0)
(10.8964 1.52178 0)
(11.0867 1.63059 0)
(11.2583 1.70424 0)
(11.4051 1.74677 0)
(11.5235 1.76283 0)
(11.6125 1.75716 0)
(11.6726 1.73427 0)
(11.7057 1.69822 0)
(11.7141 1.6525 0)
(11.7007 1.60004 0)
(11.6684 1.5432 0)
(11.6202 1.48383 0)
(11.5588 1.42338 0)
(11.4864 1.36292 0)
(11.4054 1.30327 0)
(11.3176 1.24499 0)
(11.2246 1.18849 0)
(11.1278 1.134 0)
(11.0284 1.08171 0)
(10.9273 1.03167 0)
(10.8255 0.983918 0)
(10.7235 0.938431 0)
(10.6219 0.89516 0)
(10.5211 0.854035 0)
(10.4217 0.814974 0)
(10.3237 0.777887 0)
(10.2275 0.74268 0)
(10.1332 0.709256 0)
(10.0411 0.677519 0)
(9.95108 0.647375 0)
(9.86335 0.618734 0)
(9.77795 0.591507 0)
(9.69488 0.565611 0)
(9.61418 0.540966 0)
(9.53583 0.517497 0)
(9.45983 0.495131 0)
(9.38615 0.473802 0)
(9.31478 0.453446 0)
(9.24568 0.434003 0)
(9.17881 0.415416 0)
(9.11414 0.397633 0)
(9.05163 0.380604 0)
(8.99123 0.364281 0)
(8.9329 0.34862 0)
(8.87659 0.33358 0)
(8.82226 0.31912 0)
(8.76987 0.305204 0)
(8.71938 0.291796 0)
(8.67074 0.278863 0)
(8.62391 0.266372 0)
(8.57886 0.254293 0)
(8.53554 0.242598 0)
(8.49392 0.231257 0)
(8.45397 0.220246 0)
(8.41565 0.209536 0)
(8.37893 0.199104 0)
(8.34378 0.188924 0)
(8.31017 0.178973 0)
(8.27809 0.169227 0)
(8.2475 0.159663 0)
(8.21838 0.150257 0)
(8.19073 0.140986 0)
(8.16451 0.131825 0)
(8.13972 0.122751 0)
(8.11635 0.113738 0)
(8.09438 0.104761 0)
(8.07381 0.0957912 0)
(8.05464 0.0868005 0)
(8.03686 0.0777574 0)
(8.02048 0.0686285 0)
(8.00549 0.0593771 0)
(7.99191 0.0499627 0)
(7.97975 0.0403405 0)
(7.96901 0.03046 0)
(7.95972 0.0202642 0)
(7.95189 0.00968796 0)
(7.94553 -0.00134363 0)
(7.94068 -0.0129172 0)
(7.93735 -0.0251336 0)
(7.93555 -0.0381111 0)
(7.9353 -0.0519882 0)
(7.93659 -0.0669281 0)
(7.93942 -0.0831222 0)
(7.94374 -0.100794 0)
(7.94946 -0.120202 0)
(7.95645 -0.141638 0)
(7.96449 -0.165425 0)
(7.97324 -0.191897 0)
(7.98223 -0.221371 0)
(7.99085 -0.254094 0)
(7.99827 -0.290158 0)
(8.00357 -0.329393 0)
(8.00575 -0.37124 0)
(8.00398 -0.414667 0)
(10.003 0.118925 0)
(10.0416 0.360525 0)
(10.1226 0.596978 0)
(10.2414 0.818302 0)
(10.388 1.01766 0)
(10.5529 1.19092 0)
(10.7269 1.33592 0)
(10.9013 1.45224 0)
(11.0684 1.5408 0)
(11.2222 1.60358 0)
(11.3584 1.64318 0)
(11.4741 1.66257 0)
(11.5681 1.66483 0)
(11.6402 1.65294 0)
(11.691 1.62969 0)
(11.7218 1.59757 0)
(11.7342 1.55873 0)
(11.7301 1.515 0)
(11.7114 1.46791 0)
(11.6801 1.41868 0)
(11.6379 1.3683 0)
(11.5865 1.31756 0)
(11.5274 1.26705 0)
(11.462 1.21724 0)
(11.3915 1.16845 0)
(11.3171 1.12094 0)
(11.2395 1.07487 0)
(11.1597 1.03036 0)
(11.0783 0.987465 0)
(10.9958 0.946219 0)
(10.9129 0.906624 0)
(10.83 0.868661 0)
(10.7474 0.832298 0)
(10.6653 0.797492 0)
(10.5841 0.76419 0)
(10.504 0.732337 0)
(10.4252 0.701874 0)
(10.3477 0.672739 0)
(10.2717 0.644872 0)
(10.1974 0.618211 0)
(10.1246 0.592697 0)
(10.0536 0.568271 0)
(9.98437 0.544876 0)
(9.91688 0.522458 0)
(9.8512 0.500964 0)
(9.78731 0.480343 0)
(9.72523 0.460548 0)
(9.66494 0.441531 0)
(9.60645 0.423248 0)
(9.54973 0.405658 0)
(9.49477 0.38872 0)
(9.44155 0.372395 0)
(9.39005 0.356647 0)
(9.34025 0.34144 0)
(9.29212 0.326741 0)
(9.24565 0.312517 0)
(9.2008 0.298737 0)
(9.15755 0.285372 0)
(9.11589 0.272391 0)
(9.07578 0.259768 0)
(9.0372 0.247475 0)
(9.00014 0.235485 0)
(8.96457 0.223772 0)
(8.93047 0.212311 0)
(8.89783 0.201077 0)
(8.86662 0.190043 0)
(8.83684 0.179185 0)
(8.80846 0.168478 0)
(8.78148 0.157895 0)
(8.75589 0.14741 0)
(8.73167 0.136997 0)
(8.70882 0.126625 0)
(8.68733 0.116267 0)
(8.66721 0.10589 0)
(8.64844 0.095462 0)
(8.63104 0.0849457 0)
(8.61499 0.0743026 0)
(8.60032 0.06349 0)
(8.58702 0.0524607 0)
(8.57509 0.0411624 0)
(8.56456 0.0295363 0)
(8.55542 0.0175164 0)
(8.5477 0.00502763 0)
(8.54139 -0.00801563 0)
(8.53649 -0.0217111 0)
(8.53302 -0.0361711 0)
(8.53096 -0.0515244 0)
(8.53028 -0.0679184 0)
(8.53095 -0.0855212 0)
(8.53289 -0.104522 0)
(8.53599 -0.125132 0)
(8.54009 -0.147577 0)
(8.54496 -0.172092 0)
(8.55028 -0.198905 0)
(8.55563 -0.228204 0)
(8.56048 -0.260103 0)
(8.56418 -0.29458 0)
(8.56604 -0.33141 0)
(8.56534 -0.370104 0)
(8.56153 -0.409872 0)
(10.0023 0.101289 0)
(10.0321 0.306708 0)
(10.095 0.508997 0)
(10.1884 0.701142 0)
(10.3062 0.878006 0)
(10.4421 1.03618 0)
(10.59 1.17361 0)
(10.7435 1.28937 0)
(10.8968 1.38355 0)
(11.0448 1.45698 0)
(11.1833 1.51103 0)
(11.3092 1.54745 0)
(11.4202 1.56821 0)
(11.5151 1.57536 0)
(11.5934 1.57092 0)
(11.6551 1.55682 0)
(11.7008 1.53483 0)
(11.7313 1.50654 0)
(11.7478 1.47335 0)
(11.7515 1.43646 0)
(11.7437 1.39688 0)
(11.7256 1.35547 0)
(11.6986 1.31293 0)
(11.6637 1.26983 0)
(11.6222 1.22664 0)
(11.5749 1.1837 0)
(11.5229 1.14131 0)
(11.4669 1.09969 0)
(11.4076 1.05899 0)
(11.3457 1.01934 0)
(11.2819 0.980824 0)
(11.2165 0.943488 0)
(11.1501 0.907365 0)
(11.083 0.872469 0)
(11.0156 0.838798 0)
(10.9481 0.806337 0)
(10.8809 0.775065 0)
(10.814 0.744954 0)
(10.7477 0.715971 0)
(10.6823 0.688079 0)
(10.6177 0.661239 0)
(10.5541 0.635411 0)
(10.4916 0.610553 0)
(10.4302 0.586625 0)
(10.3701 0.563585 0)
(10.3113 0.541392 0)
(10.2539 0.520007 0)
(10.1978 0.499389 0)
(10.143 0.4795 0)
(10.0897 0.460304 0)
(10.0378 0.441763 0)
(9.98738 0.423843 0)
(9.93834 0.406509 0)
(9.89074 0.389729 0)
(9.84457 0.37347 0)
(9.79982 0.357701 0)
(9.7565 0.342392 0)
(9.71458 0.327514 0)
(9.67407 0.313037 0)
(9.63495 0.298934 0)
(9.59722 0.285178 0)
(9.56086 0.271741 0)
(9.52586 0.258596 0)
(9.49221 0.245718 0)
(9.45991 0.23308 0)
(9.42895 0.220657 0)
(9.39931 0.20842 0)
(9.37098 0.196345 0)
(9.34397 0.184403 0)
(9.31827 0.172568 0)
(9.29386 0.16081 0)
(9.27075 0.149099 0)
(9.24893 0.137405 0)
(9.22841 0.125694 0)
(9.20918 0.113932 0)
(9.19124 0.102081 0)
(9.17459 0.0900998 0)
(9.15925 0.0779456 0)
(9.1452 0.0655698 0)
(9.13246 0.0529194 0)
(9.12102 0.0399356 0)
(9.1109 0.0265528 0)
(9.10208 0.0126978 0)
(9.09458 -0.00171155 0)
(9.08837 -0.0167678 0)
(9.08345 -0.0325747 0)
(9.07979 -0.0492488 0)
(9.07735 -0.06692 0)
(9.07607 -0.0857321 0)
(9.07586 -0.105842 0)
(9.07659 -0.127415 0)
(9.07809 -0.150623 0)
(9.08014 -0.175631 0)
(9.08245 -0.202585 0)
(9.08465 -0.231586 0)
(9.08629 -0.262662 0)
(9.08688 -0.295728 0)
(9.08588 -0.33055 0)
(9.08279 -0.366709 0)
(9.07721 -0.403594 0)
(10.0018 0.0874791 0)
(10.0254 0.264534 0)
(10.0752 0.4395 0)
(10.1499 0.607324 0)
(10.2453 0.764126 0)
(10.3574 0.907173 0)
(10.4819 1.03466 0)
(10.6144 1.14559 0)
(10.7506 1.2397 0)
(10.8865 1.31724 0)
(11.0185 1.37892 0)
(11.1437 1.42574 0)
(11.2597 1.45891 0)
(11.365 1.47977 0)
(11.4583 1.48974 0)
(11.5389 1.4902 0)
(11.6067 1.48251 0)
(11.6618 1.46795 0)
(11.7045 1.44768 0)
(11.7357 1.42277 0)
(11.7558 1.39414 0)
(11.7659 1.36262 0)
(11.7667 1.32891 0)
(11.7592 1.29362 0)
(11.7442 1.25725 0)
(11.7226 1.22024 0)
(11.6951 1.18294 0)
(11.6625 1.14564 0)
(11.6255 1.10857 0)
(11.5848 1.07192 0)
(11.5408 1.03583 0)
(11.4942 1.00043 0)
(11.4454 0.965805 0)
(11.3947 0.932009 0)
(11.3427 0.899093 0)
(11.2896 0.867084 0)
(11.2358 0.836 0)
(11.1814 0.805846 0)
(11.1268 0.776618 0)
(11.0721 0.748308 0)
(11.0176 0.7209 0)
(10.9633 0.694375 0)
(10.9095 0.66871 0)
(10.8562 0.643881 0)
(10.8035 0.61986 0)
(10.7516 0.596619 0)
(10.7005 0.574129 0)
(10.6502 0.55236 0)
(10.6009 0.531283 0)
(10.5526 0.510867 0)
(10.5054 0.491081 0)
(10.4591 0.471898 0)
(10.414 0.453286 0)
(10.37 0.435217 0)
(10.3272 0.417663 0)
(10.2854 0.400594 0)
(10.2449 0.383983 0)
(10.2055 0.367803 0)
(10.1673 0.352025 0)
(10.1303 0.336625 0)
(10.0945 0.321574 0)
(10.0598 0.306848 0)
(10.0264 0.292418 0)
(9.99414 0.27826 0)
(9.96309 0.264348 0)
(9.93322 0.250654 0)
(9.90455 0.237152 0)
(9.87707 0.223816 0)
(9.85078 0.210616 0)
(9.82568 0.197526 0)
(9.80177 0.184516 0)
(9.77906 0.171554 0)
(9.75753 0.15861 0)
(9.7372 0.145649 0)
(9.71806 0.132636 0)
(9.70012 0.119533 0)
(9.68337 0.106298 0)
(9.66783 0.0928878 0)
(9.65349 0.0792538 0)
(9.64035 0.0653435 0)
(9.62841 0.0510995 0)
(9.61767 0.0364584 0)
(9.60813 0.0213501 0)
(9.59976 0.00569735 0)
(9.59257 -0.0105852 0)
(9.58651 -0.0275916 0)
(9.58156 -0.0454249 0)
(9.57765 -0.0641973 0)
(9.57473 -0.0840287 0)
(9.57268 -0.105045 0)
(9.57139 -0.127376 0)
(9.57067 -0.151145 0)
(9.57033 -0.176465 0)
(9.5701 -0.203422 0)
(9.56966 -0.232056 0)
(9.56866 -0.262344 0)
(9.5667 -0.294174 0)
(9.56338 -0.327317 0)
(9.55833 -0.36142 0)
(9.55127 -0.396002 0)
(10.0015 0.0764117 0)
(10.0206 0.230775 0)
(10.0608 0.383628 0)
(10.1214 0.531233 0)
(10.1995 0.670618 0)
(10.2925 0.799589 0)
(10.3973 0.916617 0)
(10.5108 1.02077 0)
(10.6298 1.11165 0)
(10.7514 1.18926 0)
(10.8726 1.25393 0)
(10.991 1.30623 0)
(11.1046 1.34692 0)
(11.2116 1.37688 0)
(11.3106 1.39704 0)
(11.4007 1.4084 0)
(11.4811 1.41195 0)
(11.5517 1.40866 0)
(11.6122 1.39944 0)
(11.6629 1.38517 0)
(11.704 1.36663 0)
(11.7359 1.34456 0)
(11.7592 1.3196 0)
(11.7744 1.29233 0)
(11.7821 1.26324 0)
(11.7829 1.23279 0)
(11.7775 1.20134 0)
(11.7664 1.16923 0)
(11.7503 1.13672 0)
(11.7297 1.10405 0)
(11.7051 1.07141 0)
(11.677 1.03895 0)
(11.6458 1.00682 0)
(11.612 0.975106 0)
(11.5759 0.943903 0)
(11.538 0.913274 0)
(11.4984 0.883268 0)
(11.4576 0.853923 0)
(11.4157 0.825264 0)
(11.3731 0.797308 0)
(11.3298 0.770065 0)
(11.2862 0.743535 0)
(11.2423 0.717717 0)
(11.1984 0.692602 0)
(11.1545 0.66818 0)
(11.1109 0.644436 0)
(11.0675 0.621353 0)
(11.0245 0.598914 0)
(10.9819 0.577098 0)
(10.94 0.555885 0)
(10.8986 0.535251 0)
(10.8579 0.515175 0)
(10.818 0.495633 0)
(10.7788 0.476602 0)
(10.7404 0.458056 0)
(10.7029 0.439973 0)
(10.6662 0.422329 0)