/*--------------------------------*- C++ -*----------------------------------*\
| =========                 |                                                 |
| \\      /  F ield         | OpenFOAM: The Open Source CFD Toolbox           |
|  \\    /   O peration     | Version:  2406                                  |
|   \\  /    A nd           | Website:  www.openfoam.com                      |
|    \\/     M anipulation  |                                                 |
\*---------------------------------------------------------------------------*/
FoamFile
{
    version     2.0;
    format      ascii;
    arch        "LSB;label=32;scalar=64";
    class       volScalarField;
    location    "2000";
    object      epsilon;
}
// * * * * * * * * * * * * * * * * * * * * * * * * * * * * * * * * * * * * * //

dimensions      [0 2 -3 0 0 0 0];

internalField   nonuniform List<scalar> 
190000
(
30.2952
64.5705
106.197
147.905
183.234
209.779
226.095
235.233
235.44
233.397
228.411
221.139
213.309
205.487
198.023
191.107
184.817
179.17
174.141
169.691
165.768
162.324
159.31
156.682
154.401
152.435
150.756
149.339
148.164
147.214
146.475
145.935
145.556
145.279
145.248
145.329
145.454
145.772
146.235
146.842
147.594
148.491
149.535
150.726
152.068
153.559
155.203
157
158.954
161.066
163.338
165.773
168.372
171.139
174.075
177.182
180.465
183.924
187.564
191.388
195.397
199.597
203.99
208.579
213.369
218.362
223.563
228.975
234.602
240.447
246.513
252.805
259.324
266.076
273.061
280.285
287.747
295.451
303.399
311.591
320.03
328.714
337.645
346.822
356.242
365.905
375.807
385.946
396.315
406.911
417.726
428.754
439.986
451.412
463.022
474.804
486.744
498.829
511.042
523.367
13.8797
14.44
17.049
21.4773
27.1155
32.7092
37.3023
40.9189
43.19
44.5182
45.0767
44.9424
44.6436
43.9339
43.0741
42.1621
41.2391
40.3399
39.4843
38.6826
37.9386
37.2523
36.6208
36.0407
35.5074
35.0168
34.5648
34.1476
33.7632
33.4065
33.0817
32.7777
32.5326
32.328
32.1552
32.0052
31.8719
31.756
31.6576
31.5754
31.5104
31.462
31.4306
31.4133
31.4322
31.4429
31.4764
31.5275
31.5977
31.6842
31.7896
31.9108
32.0502
32.2072
32.3801
32.5696
32.7758
32.9983
33.2373
33.4924
33.7638
34.0515
34.3556
34.676
35.013
35.3664
35.7364
36.1232
36.527
36.9478
37.3858
37.8415
38.315
38.8066
39.3167
39.8457
40.3938
40.9619
41.55
42.1589
42.7891
43.4411
44.1156
44.8131
45.5346
46.2802
47.0516
47.8482
48.6725
49.5234
50.4035
51.3118
52.2512
53.2203
54.2225
55.2558
56.3239
57.4247
58.5619
59.7336
13.734
12.0091
10.7024
9.87637
9.38285
9.33837
9.41348
9.59874
9.83677
10.0453
10.1911
10.2728
10.2788
10.2252
10.1574
10.0411
9.90441
9.75726
9.60576
9.45643
9.31191
9.17549
9.04804
8.93013
8.82244
8.72344
8.63398
8.55194
8.47741
8.40874
8.34633
8.28784
8.23493
8.18452
8.13976
8.10079
8.06517
8.03161
7.99826
7.96535
7.93255
7.89892
7.86437
7.82823
7.79132
7.75253
7.71225
7.67022
7.62691
7.58207
7.53616
7.48902
7.44092
7.39199
7.34224
7.29181
7.24082
7.18935
7.1375
7.0854
7.03313
6.98084
6.9286
6.87659
6.82485
6.77357
6.72276
6.67267
6.62325
6.57482
6.52727
6.48099
6.4358
6.39218
6.34988
6.30945
6.2706
6.23388
6.19906
6.1666
6.13642
6.10875
6.08383
6.06147
6.04251
6.02593
6.01369
6.00328
5.99864
5.99466
5.99642
6.00132
6.01173
6.02575
6.04523
6.06813
6.09716
6.12966
6.1689
6.21179
13.7491
11.9641
10.5036
9.31169
8.32794
7.53032
6.88199
6.35536
5.9273
5.57721
5.28517
5.03827
4.82345
4.63224
4.46011
4.30197
4.15473
4.01683
3.88678
3.7641
3.6481
3.53858
3.43527
3.3378
3.24623
3.15992
3.07906
3.00288
2.9316
2.86428
2.80136
2.7416
2.68541
2.63132
2.5815
2.53555
2.49299
2.45336
2.41619
2.38111
2.3478
2.31589
2.28514
2.25524
2.22603
2.19727
2.16884
2.14055
2.11235
2.08412
2.05581
2.02737
1.99878
1.97002
1.94109
1.912
1.88276
1.85339
1.82394
1.79442
1.76489
1.73538
1.70594
1.67663
1.64747
1.61854
1.58987
1.56151
1.5335
1.50591
1.47876
1.45212
1.42599
1.40046
1.37551
1.35124
1.32763
1.30475
1.28258
1.2612
1.24059
1.22079
1.20183
1.18367
1.16642
1.14997
1.13447
1.11976
1.10603
1.0931
1.08113
1.06997
1.0598
1.0504
1.04206
1.03441
1.02788
1.02199
1.01727
1.01311
13.7498
11.9621
10.4986
9.28797
8.27608
7.42353
6.70019
6.08273
5.55272
5.09558
4.69917
4.35375
4.05105
3.78427
3.54779
3.33698
3.14794
2.9775
2.823
2.68226
2.55349
2.43513
2.32601
2.22496
2.13124
2.04392
1.96253
1.88633
1.81502
1.74791
1.68481
1.62525
1.56941
1.51692
1.46753
1.42104
1.37723
1.33591
1.2969
1.26003
1.22512
1.19203
1.16061
1.13072
1.10225
1.07507
1.04909
1.02419
1.0003
0.977338
0.955226
0.9339
0.913306
0.893391
0.874111
0.855428
0.837309
0.819726
0.802653
0.786072
0.769965
0.754319
0.739122
0.724367
0.710045
0.696153
0.682684
0.669637
0.657009
0.644799
0.633004
0.621624
0.610656
0.600104
0.589957
0.580227
0.570891
0.561974
0.553439
0.545318
0.53757
0.530222
0.523241
0.516639
0.510398
0.504511
0.498972
0.493768
0.488888
0.484325
0.480059
0.476087
0.472391
0.468964
0.465791
0.462863
0.460155
0.45766
0.455374
0.453265
13.7497
11.9611
10.4963
9.28334
8.26858
7.4117
6.68203
6.05593
5.51495
5.04455
4.63316
4.27147
3.95191
3.66828
3.41545
3.18917
2.98586
2.80252
2.6366
2.48595
2.34871
2.22331
2.10839
2.00278
1.90545
1.81555
1.73227
1.65497
1.58304
1.51606
1.45356
1.39513
1.34043
1.28912
1.24095
1.19565
1.153
1.11281
1.07488
1.03905
1.00518
0.973121
0.942757
0.913971
0.886659
0.860724
0.836079
0.812643
0.79034
0.769102
0.748866
0.729573
0.71117
0.693606
0.676838
0.660822
0.645521
0.630898
0.616922
0.603563
0.590792
0.578586
0.56692
0.555773
0.545125
0.534958
0.525256
0.516
0.507178
0.498776
0.490779
0.483177
0.475955
0.469106
0.462613
0.456474
0.450668
0.445197
0.440036
0.435192
0.430636
0.426377
0.422388
0.41867
0.415206
0.411987
0.409003
0.406239
0.403687
0.401333
0.399162
0.39718
0.395357
0.393693
0.39215
0.390755
0.389437
0.38825
0.387117
0.386077
13.7496
11.9606
10.4949
9.28072
8.26455
7.40621
6.67502
6.04733
5.50464
5.0324
4.61897
4.25503
3.93304
3.64682
3.39128
3.16221
2.95611
2.77001
2.60142
2.44823
2.30862
2.18104
2.06416
1.9568
1.85796
1.76677
1.68247
1.60437
1.53189
1.4645
1.40174
1.34318
1.28847
1.23727
1.18929
1.14427
1.10197
1.06218
1.0247
0.989373
0.956033
0.924539
0.894762
0.866585
0.839901
0.814612
0.79063
0.767871
0.746263
0.725734
0.706223
0.687672
0.670026
0.653236
0.637256
0.622044
0.607561
0.593771
0.580641
0.568138
0.556235
0.544904
0.534121
0.523861
0.514104
0.504828
0.496016
0.487648
0.47971
0.472183
0.465054
0.458309
0.451934
0.445916
0.440244
0.434903
0.429886
0.425176
0.420769
0.416647
0.412806
0.409228
0.405911
0.402834
0.399999
0.397381
0.394981
0.392781
0.390769
0.388941
0.387282
0.385791
0.384426
0.3832
0.382081
0.381085
0.380176
0.379382
0.378615
0.377918
13.7496
11.9603
10.4941
9.27903
8.26188
7.40249
6.67028
6.04163
5.49806
5.02502
4.61089
4.24633
3.92377
3.63703
3.381
3.15148
2.94494
2.75841
2.58942
2.43583
2.29584
2.16791
2.05068
1.94301
1.8439
1.75246
1.66793
1.58964
1.51699
1.44946
1.38659
1.32797
1.27322
1.22201
1.17406
1.12909
1.08688
1.0472
1.00986
0.974686
0.941522
0.910222
0.880655
0.852701
0.826253
0.801211
0.777484
0.754988
0.733649
0.713395
0.694163
0.675894
0.658532
0.642029
0.626336
0.611413
0.597218
0.583716
0.570872
0.558655
0.547035
0.535985
0.52548
0.515496
0.506012
0.497006
0.48846
0.480355
0.472675
0.465403
0.458526
0.452027
0.445895
0.440114
0.434675
0.429564
0.424772
0.420283
0.416094
0.412184
0.408555
0.405181
0.40207
0.399193
0.396554
0.394135
0.391924
0.389918
0.388097
0.386468
0.385
0.383697
0.382499
0.381473
0.380561
0.379784
0.379062
0.378413
0.377802
0.377249
13.7495
11.9601
10.4935
9.27787
8.26
7.39985
6.66687
6.03747
5.49323
5.01959
4.60495
4.23995
3.91703
3.63
3.37375
3.14404
2.93736
2.75074
2.58168
2.42805
2.28803
2.16009
2.04286
1.93521
1.83612
1.74471
1.66022
1.58198
1.50939
1.44192
1.37911
1.32056
1.26588
1.21475
1.16688
1.12201
1.07988
1.0403
1.00306
0.967997
0.934943
0.903756
0.874306
0.846473
0.820148
0.795232
0.771633
0.749267
0.72806
0.707939
0.688841
0.670705
0.653478
0.637108
0.621549
0.606758
0.592695
0.579323
0.566608
0.554519
0.543025
0.532101
0.521719
0.511857
0.502492
0.493605
0.485176
0.477185
0.469619
0.462458
0.455691
0.4493
0.443275
0.4376
0.432266
0.427259
0.422569
0.418184
0.414094
0.410288
0.406758
0.403488
0.400476
0.397704
0.395164
0.392856
0.390741
0.388851
0.387128
0.385632
0.384244
0.383074
0.382034
0.381179
0.38041
0.379766
0.379155
0.378646
0.378219
0.377841
13.7495
11.9599
10.4931
9.27705
8.25866
7.39792
6.66433
6.03436
5.48957
5.01545
4.60037
4.23501
3.91178
3.6245
3.36805
3.1382
2.93141
2.74472
2.57561
2.42196
2.28195
2.15403
2.03684
1.92923
1.8302
1.73885
1.65443
1.57626
1.50375
1.43636
1.37364
1.31517
1.26058
1.20954
1.16176
1.11697
1.07493
1.03544
0.99829
0.963312
0.930346
0.899248
0.869887
0.842142
0.815905
0.791075
0.767563
0.745284
0.724162
0.704126
0.685111
0.667058
0.649913
0.633623
0.618144
0.603432
0.589447
0.576152
0.563512
0.551498
0.540078
0.529226
0.518916
0.509126
0.499831
0.491015
0.482654
0.474733
0.467235
0.460144
0.453445
0.447124
0.441168
0.435566
0.430302
0.42537
0.420755
0.416446
0.412439
0.408709
0.405275
0.402079
0.399177
0.396483
0.394061
0.391845
0.389846
0.388076
0.386478
0.385098
0.383874
0.38287
0.381994
0.38122
0.380635
0.37996
0.379945
0.379742
0.379762
0.379713
13.7495
11.9599
10.4928
9.27646
8.25766
7.39647
6.66241
6.03197
5.48674
5.01221
4.59677
4.23109
3.9076
3.6201
3.36347
3.13348
2.92658
2.73981
2.57066
2.41698
2.27696
2.14904
2.03188
1.9243
1.82531
1.73402
1.64965
1.57154
1.49909
1.43177
1.36912
1.31072
1.2562
1.20523
1.15752
1.11281
1.07085
1.03142
0.994348
0.959442
0.926548
0.89552
0.866228
0.838552
0.812384
0.787622
0.764176
0.741962
0.720904
0.70093
0.681978
0.663986
0.646902
0.630672
0.615252
0.600598
0.586671
0.573433
0.56085
0.548892
0.537528
0.526732
0.516477
0.506742
0.497502
0.488741
0.480436
0.472572
0.465131
0.458098
0.451458
0.445198
0.439304
0.433766
0.428568
0.423706
0.419158
0.41493
0.41099
0.407356
0.403987
0.400904
0.39807
0.395502
0.393156
0.391076
0.389166
0.387564
0.386039
0.384859
0.383804
0.38288
0.38218
0.381438
0.381103
0.381214
0.381091
0.38157
0.381814
0.381932
13.7495
11.9598
10.4926
9.27601
8.25691
7.39536
6.66093
6.0301
5.48451
5.00964
4.59389
4.22794
3.90422
3.61651
3.35972
3.12959
2.9226
2.73575
2.56654
2.41282
2.27279
2.14486
2.0277
1.92015
1.82118
1.72992
1.64559
1.56753
1.49512
1.42786
1.36526
1.30691
1.25245
1.20154
1.15389
1.10923
1.06732
1.02796
0.990942
0.956094
0.923257
0.892286
0.863051
0.83543
0.809315
0.784607
0.761214
0.739052
0.718045
0.698122
0.67922
0.661278
0.644242
0.628061
0.612689
0.598082
0.584202
0.571011
0.558474
0.546562
0.535244
0.524494
0.514285
0.504597
0.495404
0.486691
0.478434
0.47062
0.463228
0.456247
0.44966
0.443455
0.437618
0.43214
0.427003
0.422206
0.417727
0.413569
0.409708
0.406148
0.402872
0.399867
0.397144
0.394652
0.392449
0.39043
0.388708
0.387157
0.385841
0.384832
0.383833
0.383098
0.382529
0.382633
0.382754
0.38249
0.383076
0.383077
0.383744
0.384262
13.7495
11.9597
10.4924
9.27568
8.25633
7.39449
6.65976
6.02862
5.48273
5.00756
4.59155
4.22537
3.90143
3.61355
3.35661
3.12636
2.91926
2.73233
2.56306
2.4093
2.26924
2.1413
2.02413
1.91658
1.81763
1.72639
1.64209
1.56405
1.49168
1.42445
1.36189
1.30358
1.24916
1.1983
1.15069
1.10608
1.06422
1.02491
0.987933
0.953131
0.92034
0.889414
0.860223
0.832646
0.806575
0.78191
0.758559
0.736439
0.715474
0.695592
0.676731
0.658829
0.641833
0.625691
0.610358
0.59579
0.581948
0.568795
0.556298
0.544424
0.533144
0.522433
0.512264
0.502615
0.493463
0.484791
0.476577
0.468805
0.461459
0.454524
0.447986
0.441831
0.436048
0.430625
0.425547
0.420813
0.416399
0.412314
0.408524
0.40505
0.40185
0.398949
0.396306
0.393941
0.391822
0.389955
0.388338
0.386948
0.385833
0.384884
0.384028
0.383736
0.383751
0.383868
0.383892
0.384043
0.384726
0.385012
0.385654
0.385677
13.7495
11.9597
10.4923
9.27542
8.25588
7.39381
6.65882
6.02743
5.48128
5.00587
4.58963
4.22324
3.89912
3.61108
3.35399
3.12363
2.91643
2.72942
2.56009
2.40628
2.26618
2.13822
2.02104
1.91348
1.81453
1.7233
1.63902
1.561
1.48865
1.42145
1.35891
1.30064
1.24625
1.19542
1.14785
1.10327
1.06145
1.02217
0.98523
0.950464
0.917708
0.886818
0.857662
0.83012
0.804084
0.779453
0.756136
0.73405
0.713118
0.69327
0.674441
0.656572
0.639608
0.623498
0.608197
0.593661
0.579851
0.56673
0.554264
0.542422
0.531176
0.520497
0.510362
0.500746
0.491631
0.482993
0.474818
0.467083
0.459781
0.452885
0.446397
0.440283
0.434557
0.429181
0.424167
0.419489
0.415143
0.411128
0.40741
0.404025
0.4009
0.398112
0.395545
0.393322
0.391276
0.389606
0.388037
0.386889
0.385889
0.385008
0.384678
0.384521
0.384578
0.384967
0.385127
0.385652
0.385752
0.386235
0.386682
0.387309
13.7495
11.9597
10.4922
9.27522
8.25552
7.39326
6.65806
6.02645
5.48009
5.00447
4.58803
4.22146
3.89718
3.60898
3.35177
3.12129
2.914
2.72692
2.55752
2.40366
2.26352
2.13553
2.01833
1.91076
1.8118
1.72057
1.63629
1.55829
1.48595
1.41876
1.35625
1.298
1.24363
1.19282
1.14528
1.10073
1.05893
1.01968
0.982767
0.948028
0.9153
0.884437
0.855308
0.827794
0.801785
0.777181
0.753891
0.731832
0.710926
0.691104
0.672302
0.654458
0.63752
0.621437
0.606161
0.591651
0.577867
0.564772
0.552333
0.540518
0.529298
0.518648
0.508541
0.498956
0.48987
0.481265
0.473122
0.465425
0.458158
0.451303
0.444856
0.438787
0.433112
0.427781
0.422833
0.418202
0.413939
0.409974
0.406357
0.40303
0.400022
0.397306
0.39487
0.39274
0.390841
0.3893
0.387883
0.386919
0.385968
0.385526
0.385215
0.385643
0.385724
0.386706
0.38719
0.387114
0.387588
0.388321
0.389105
0.389941
13.7495
11.9597
10.4922
9.27506
8.25523
7.39282
6.65744
6.02565
5.47909
5.00329
4.58669
4.21995
3.89552
3.60719
3.34986
3.11928
2.9119
2.72474
2.55527
2.40136
2.26118
2.13315
2.01593
1.90835
1.80938
1.71814
1.63386
1.55585
1.48352
1.41634
1.35384
1.2956
1.24125
1.19046
1.14293
1.0984
1.05662
1.01738
0.980495
0.945776
0.913068
0.882226
0.853118
0.825624
0.799636
0.775053
0.751784
0.729745
0.70886
0.689059
0.670276
0.652453
0.635536
0.619473
0.604218
0.589728
0.575965
0.562892
0.550473
0.538681
0.527484
0.516858
0.506774
0.497216
0.488156
0.479582
0.471466
0.463804
0.456567
0.449755
0.443341
0.437322
0.431687
0.426413
0.421517
0.416946
0.412753
0.408852
0.405328
0.402067
0.399181
0.396533
0.394249
0.3922
0.390492
0.389034
0.387827
0.387128
0.386219
0.386095
0.386415
0.386506
0.386785
0.387185
0.387669
0.388556
0.389521
0.390623
0.391757
0.393041
13.7495
11.9597
10.4921
9.27494
8.255
7.39245
6.65692
6.02497
5.47826
5.0023
4.58554
4.21866
3.89409
3.60564
3.3482
3.11752
2.91006
2.72282
2.55329
2.39933
2.2591
2.13104
2.01379
1.90618
1.80719
1.71594
1.63165
1.55364
1.48131
1.41413
1.35163
1.2934
1.23906
1.18828
1.14076
1.09624
1.05447
1.01525
0.978375
0.94367
0.910977
0.880149
0.851056
0.823578
0.797605
0.773037
0.749783
0.727759
0.70689
0.687104
0.668337
0.65053
0.633628
0.61758
0.602341
0.587868
0.574121
0.561065
0.548664
0.53689
0.525712
0.515105
0.505043
0.495506
0.48647
0.477921
0.469832
0.462201
0.454993
0.44822
0.441838
0.43587
0.430269
0.425058
0.420203
0.415708
0.411567
0.407755
0.404298
0.401139
0.398343
0.395805
0.39365
0.39171
0.390194
0.388822
0.387977
0.38711
0.38678
0.387259
0.387311
0.387661
0.388109
0.388862
0.389757
0.390834
0.392009
0.393404
0.394911
0.396602
13.7495
11.9597
10.4921
9.27484
8.2548
7.39214
6.65649
6.0244
5.47754
5.00145
4.58455
4.21754
3.89285
3.60429
3.34675
3.11598
2.90843
2.72112
2.55153
2.39751
2.25724
2.12914
2.01185
1.90421
1.8052
1.71394
1.62963
1.55161
1.47928
1.4121
1.3496
1.29136
1.23702
1.18625
1.13873
1.09422
1.05246
1.01325
0.976378
0.941683
0.908998
0.87818
0.849097
0.821629
0.795666
0.771108
0.747865
0.725852
0.704994
0.685218
0.666462
0.648666
0.631775
0.615739
0.600512
0.586051
0.572317
0.559273
0.546887
0.535127
0.523964
0.513374
0.503329
0.493812
0.484796
0.47627
0.468205
0.460601
0.453422
0.446684
0.440335
0.434412
0.42885
0.423698
0.418888
0.414467
0.41038
0.406662
0.403265
0.400233
0.397495
0.395129
0.393033
0.391323
0.389867
0.388759
0.387899
0.387485
0.387936
0.388001
0.3884
0.388946
0.38966
0.390688
0.391875
0.393343
0.394941
0.396782
0.398734
0.400886
13.7495
11.9597
10.4921
9.27476
8.25465
7.39189
6.65612
6.02391
5.47693
5.00071
4.58369
4.21656
3.89176
3.6031
3.34546
3.1146
2.90698
2.7196
2.54995
2.39588
2.25555
2.12741
2.01009
1.90242
1.80338
1.7121
1.62778
1.54974
1.4774
1.4102
1.3477
1.28946
1.23512
1.18434
1.13683
1.09231
1.05056
1.01135
0.974482
0.93979
0.90711
0.876297
0.84722
0.819757
0.7938
0.769248
0.746011
0.724005
0.703153
0.683384
0.664635
0.646846
0.629963
0.613934
0.598716
0.584263
0.570539
0.557503
0.545129
0.533378
0.52223
0.51165
0.501623
0.492118
0.483124
0.474613
0.466577
0.45899
0.45185
0.445129
0.438832
0.43293
0.427432
0.422309
0.417575
0.413197
0.409199
0.405542
0.402247
0.399303
0.396677
0.394439
0.392468
0.390933
0.389615
0.388688
0.388179
0.388524
0.388636
0.389298
0.389762
0.390437
0.391444
0.392847
0.394386
0.396265
0.398274
0.400603
0.403055
0.40576
13.7495
11.9597
10.4921
9.2747
8.25452
7.39167
6.65581
6.02349
5.4764
5.00006
4.58293
4.2157
3.8908
3.60204
3.34431
3.11337
2.90567
2.71822
2.54851
2.39438
2.25401
2.12583
2.00847
1.90077
1.8017
1.71039
1.62605
1.548
1.47564
1.40843
1.34592
1.28767
1.23332
1.18254
1.13502
1.0905
1.04874
1.00953
0.972666
0.937974
0.905295
0.874483
0.845406
0.817945
0.79199
0.767441
0.744206
0.722202
0.701353
0.681588
0.662842
0.645056
0.628177
0.612153
0.596939
0.582491
0.568773
0.555744
0.543377
0.531633
0.520496
0.509924
0.499912
0.490418
0.481443
0.472945
0.464934
0.457363
0.450258
0.443556
0.437307
0.431425
0.425994
0.420894
0.416246
0.411903
0.408002
0.404408
0.401213
0.398379
0.395839
0.393789
0.391869
0.390655
0.389288
0.388894
0.388907
0.388998
0.389664
0.390233
0.391333
0.392048
0.393368
0.395143
0.397108
0.39951
0.40205
0.404975
0.408009
0.411361
13.7495
11.9597
10.4921
9.27465
8.25441
7.39148
6.65553
6.02312
5.47593
4.99949
4.58226
4.21492
3.88993
3.60108
3.34327
3.11225
2.90448
2.71697
2.5472
2.39302
2.2526
2.12436
2.00697
1.89923
1.80014
1.7088
1.62443
1.54636
1.47398
1.40676
1.34423
1.28597
1.23161
1.18082
1.13329
1.08877
1.047
1.00778
0.970915
0.93622
0.903537
0.872722
0.843643
0.81618
0.790223
0.765673
0.742437
0.720433
0.699583
0.679817
0.661071
0.643287
0.626408
0.610385
0.595172
0.580728
0.56701
0.553987
0.541621
0.529887
0.518751
0.508194
0.498183
0.488708
0.479737
0.471265
0.46326
0.455725
0.448628
0.441972
0.435738
0.429911
0.42451
0.419468
0.414877
0.410588
0.406786
0.403236
0.400193
0.397393
0.395066
0.393042
0.391428
0.390208
0.389163
0.389162
0.389337
0.38955
0.390071
0.390908
0.392106
0.393727
0.395618
0.39793
0.400448
0.403409
0.406529
0.410084
0.413769
0.417849
13.7495
11.9597
10.4921
9.27461
8.25431
7.39132
6.65529
6.02279
5.47551
4.99898
4.58165
4.21423
3.88915
3.60022
3.34233
3.11123
2.90339
2.71582
2.54598
2.39175
2.25128
2.123
2.00557
1.89779
1.79867
1.7073
1.62291
1.54481
1.47241
1.40517
1.34262
1.28435
1.22997
1.17916
1.13163
1.08709
1.04532
1.00609
0.969217
0.934514
0.901825
0.871004
0.841919
0.814451
0.788489
0.763934
0.740694
0.718686
0.697832
0.678064
0.659315
0.641528
0.624646
0.608622
0.593407
0.578963
0.565244
0.552223
0.539857
0.528128
0.516993
0.506445
0.496436
0.486977
0.478007
0.469561
0.461557
0.45406
0.446963
0.440363
0.434126
0.428378
0.422972
0.418035
0.413443
0.40928
0.4055
0.402084
0.399106
0.39644
0.394239
0.392354
0.390952
0.389773
0.389437
0.389383
0.389932
0.390277
0.39117
0.392284
0.393985
0.395929
0.398317
0.401084
0.404181
0.407742
0.411545
0.415838
0.420312
0.425259
13.7495
11.9597
10.4921
9.27458
8.25423
7.39118
6.65508
6.0225
5.47513
4.99851
4.5811
4.2136
3.88843
3.59942
3.34146
3.11029
2.90238
2.71475
2.54486
2.39057
2.25005
2.12173
2.00425
1.89644
1.79728
1.70588
1.62146
1.54333
1.47091
1.40365
1.34108
1.28278
1.22839
1.17757
1.13002
1.08547
1.04369
1.00445
0.96756
0.932847
0.900148
0.869318
0.840225
0.812749
0.786779
0.762217
0.73897
0.716954
0.696095
0.676319
0.657566
0.639772
0.622887
0.606856
0.59164
0.577189
0.563472
0.550444
0.538083
0.526347
0.515221
0.504667
0.494673
0.485209
0.476261
0.467813
0.459837
0.452344
0.445281
0.438697
0.432496
0.426789
0.421409
0.416556
0.41197
0.407953
0.404147
0.400955
0.39792
0.395564
0.39328
0.391822
0.390253
0.389753
0.389542
0.389971
0.390291
0.391093
0.392333
0.393682
0.396014
0.398285
0.401352
0.40463
0.408473
0.412723
0.417353
0.422499
0.427907
0.433865
13.7495
11.9598
10.4921
9.27455
8.25416
7.39105
6.65488
6.02223
5.47479
4.99809
4.5806
4.21301
3.88777
3.59869
3.34065
3.10942
2.90144
2.71375
2.5438
2.38946
2.24889
2.12052
2.003
1.89515
1.79595
1.70452
1.62007
1.54192
1.46947
1.40218
1.33959
1.28128
1.22686
1.17602
1.12845
1.08389
1.04209
1.00284
0.965936
0.93121
0.898499
0.867657
0.838553
0.811065
0.785085
0.760513
0.737256
0.715231
0.694362
0.674578
0.655816
0.638014
0.621122
0.605084
0.589862
0.575404
0.561683
0.548649
0.536288
0.524546
0.513424
0.502864
0.492882
0.483409
0.474486
0.466023
0.458091
0.450576
0.44358
0.436964
0.430862
0.42511
0.419867
0.414961
0.410546
0.406484
0.402876
0.399664
0.396849
0.394521
0.392463
0.391139
0.389701
0.389635
0.389931
0.390179
0.39098
0.391825
0.393821
0.395338
0.39844
0.400921
0.404913
0.408642
0.413441
0.418392
0.424045
0.430132
0.436697
0.443822
13.7495
11.9598
10.4921
9.27453
8.2541
7.39094
6.65471
6.02199
5.47447
4.9977
4.58014
4.21247
3.88716
3.598
3.33989
3.1086
2.90056
2.7128
2.5428
2.38841
2.24779
2.11938
2.00181
1.89392
1.79469
1.70322
1.61873
1.54055
1.46807
1.40076
1.33815
1.27981
1.22537
1.17451
1.12692
1.08234
1.04052
1.00125
0.964337
0.929596
0.89687
0.866014
0.836896
0.809395
0.783402
0.758817
0.735547
0.713512
0.69263
0.672836
0.654061
0.636251
0.619346
0.603303
0.588067
0.573606
0.559872
0.546838
0.534464
0.522726
0.511592
0.50104
0.491048
0.48159
0.472658
0.464217
0.456282
0.448793
0.441808
0.435219
0.42915
0.423419
0.418249
0.413344
0.409068
0.404969
0.401591
0.39829
0.395829
0.393329
0.391817
0.390187
0.389591
0.389506
0.390114
0.390521
0.391656
0.392783
0.395306
0.397175
0.401154
0.403822
0.409058
0.413083
0.419182
0.424802
0.431784
0.438942
0.446942
0.45548
13.7495
11.9598
10.4921
9.27451
8.25404
7.39083
6.65454
6.02176
5.47418
4.99734
4.5797
4.21197
3.88658
3.59736
3.33918
3.10782
2.89972
2.71191
2.54185
2.3874
2.24674
2.11828
2.00067
1.89274
1.79347
1.70196
1.61744
1.53923
1.46672
1.39938
1.33674
1.27837
1.22392
1.17303
1.12542
1.08082
1.03898
0.999693
0.962758
0.927999
0.895256
0.864383
0.835249
0.807732
0.781724
0.757124
0.73384
0.71179
0.690894
0.671088
0.652299
0.634477
0.617559
0.601505
0.586257
0.571787
0.558041
0.545002
0.532615
0.520877
0.50973
0.499185
0.489178
0.479737
0.470787
0.462379
0.454419
0.446987
0.439964
0.433466
0.427343
0.421745
0.416506
0.41178
0.407426
0.40355
0.400106
0.397058
0.394581
0.392322
0.390964
0.389405
0.389302
0.389471
0.389825
0.390705
0.392341
0.393792
0.396968
0.399255
0.404048
0.40723
0.413778
0.418001
0.425957
0.43205
0.440932
0.449148
0.459031
0.469194
13.7495
11.9598
10.4921
9.27449
8.25399
7.39073
6.65439
6.02155
5.4739
4.997
4.57929
4.21149
3.88604
3.59674
3.33851
3.10708
2.89893
2.71105
2.54094
2.38644
2.24573
2.11722
1.99957
1.8916
1.79229
1.70074
1.61619
1.53794
1.4654
1.39803
1.33536
1.27697
1.22249
1.17158
1.12394
1.07932
1.03746
0.998148
0.961192
0.926413
0.893651
0.862759
0.833607
0.806072
0.780047
0.755429
0.73213
0.710062
0.689153
0.669328
0.650527
0.632688
0.615758
0.599687
0.58443
0.569943
0.556191
0.543135
0.530745
0.51899
0.507845
0.497284
0.487285
0.47783
0.468896
0.460476
0.452539
0.445105
0.438108
0.431629
0.425525
0.419988
0.414744
0.410144
0.405748
0.402091
0.39855
0.39585
0.393192
0.391479
0.38984
0.388855
0.389254
0.389354
0.390148
0.391166
0.393279
0.395169
0.398978
0.401795
0.407436
0.411281
0.418987
0.423946
0.433905
0.440271
0.45192
0.460837
0.473482
0.485246
13.7496
11.9598
10.4921
9.27447
8.25394
7.39064
6.65425
6.02135
5.47364
4.99667
4.5789
4.21103
3.88552
3.59616
3.33786
3.10638
2.89816
2.71023
2.54006
2.38551
2.24475
2.1162
1.9985
1.89049
1.79114
1.69955
1.61497
1.53668
1.46411
1.39671
1.33401
1.27559
1.22108
1.17014
1.12248
1.07783
1.03595
0.996614
0.959636
0.924835
0.892052
0.861139
0.831968
0.804412
0.778369
0.753731
0.730414
0.708327
0.687401
0.667557
0.648741
0.630882
0.613939
0.59785
0.58258
0.568076
0.554313
0.541241
0.528844
0.517073
0.505926
0.495348
0.485356
0.475881
0.466968
0.458523
0.450628
0.443157
0.436234
0.429704
0.42371
0.418114
0.413012
0.408366
0.40413
0.400464
0.397088
0.394453
0.391931
0.390457
0.388747
0.388578
0.388639
0.389404
0.390352
0.391646
0.394393
0.396604
0.401241
0.404484
0.411314
0.415771
0.425042
0.430839
0.442791
0.450059
0.464878
0.474162
0.491013
0.503895
13.7495
11.9598
10.4921
9.27445
8.25389
7.39055
6.65411
6.02115
5.47339
4.99636
4.57853
4.2106
3.88502
3.5956
3.33724
3.10569
2.89742
2.70944
2.53922
2.38462
2.2438
2.1152
1.99746
1.88941
1.79001
1.69839
1.61376
1.53545
1.46284
1.3954
1.33267
1.27422
1.21968
1.16872
1.12103
1.07635
1.03445
0.995087
0.958085
0.923261
0.890455
0.85952
0.830326
0.80275
0.776685
0.752026
0.728689
0.706582
0.685636
0.665773
0.646937
0.629061
0.612099
0.595992
0.580706
0.566186
0.552406
0.539321
0.526907
0.515129
0.503965
0.493386
0.483376
0.473909
0.464979
0.456549
0.448646
0.441192
0.434284
0.427755
0.421828
0.416196
0.411241
0.406505
0.402516
0.398714
0.395681
0.392886
0.390814
0.389165
0.387988
0.3881
0.388438
0.389137
0.390426
0.392475
0.395301
0.398361
0.4037
0.407713
0.415716
0.421095
0.43193
0.43889
0.45295
0.461726
0.479481
0.490262
0.512099
0.525639
13.7496
11.9598
10.4921
9.27443
8.25384
7.39046
6.65397
6.02097
5.47315
4.99606
4.57817
4.21018
3.88453
3.59506
3.33664
3.10503
2.8967
2.70866
2.53839
2.38374
2.24288
2.11423
1.99644
1.88834
1.78891
1.69725
1.61258
1.53423
1.46158
1.39411
1.33135
1.27287
1.2183
1.16731
1.11959
1.07489
1.03295
0.993566
0.956537
0.921689
0.888857
0.857899
0.82868
0.801082
0.774993
0.750314
0.726952
0.704825
0.683856
0.663974
0.645116
0.627221
0.610239
0.594113
0.578807
0.56427
0.550472
0.537371
0.524941
0.513151
0.50197
0.491387
0.481357
0.4719
0.462941
0.454544
0.446599
0.439209
0.432243
0.425816
0.419822
0.414316
0.409319
0.404698
0.400755
0.396997
0.39417
0.391324
0.389624
0.387886
0.387314
0.387324
0.388008
0.388974
0.390395
0.393536
0.396061
0.401063
0.406008
0.411914
0.42046
0.427226
0.43976
0.448044
0.464796
0.475275
0.496622
0.509754
0.536493
0.552614
13.7496
11.9598
10.4921
9.27441
8.25379
7.39037
6.65384
6.02079
5.47291
4.99577
4.57782
4.20977
3.88406
3.59453
3.33605
3.10439
2.896
2.70791
2.53758
2.38288
2.24197
2.11328
1.99544
1.8873
1.78782
1.69612
1.61141
1.53302
1.46034
1.39284
1.33004
1.27153
1.21692
1.1659
1.11815
1.07342
1.03146
0.992046
0.954989
0.920115
0.887256
0.856274
0.827029
0.799408
0.773292
0.748591
0.725204
0.703056
0.682061
0.662159
0.643277
0.625362
0.608356
0.592211
0.576884
0.562327
0.548512
0.53539
0.522947
0.511135
0.499947
0.489343
0.479312
0.469836
0.46088
0.452477
0.444529
0.437161
0.430172
0.423817
0.417764
0.412407
0.407298
0.402927
0.398818
0.395392
0.392447
0.389855
0.388338
0.386544
0.386571
0.386877
0.387456
0.388912
0.390767
0.394498
0.397586
0.403999
0.408418
0.417281
0.424985
0.435163
0.448007
0.459153
0.478333
0.491154
0.51695
0.533053
0.565839
0.586053
13.7496
11.9598
10.4921
9.27439
8.25374
7.39029
6.65371
6.02061
5.47268
4.99548
4.57747
4.20936
3.8836
3.59401
3.33547
3.10376
2.89532
2.70717
2.53679
2.38204
2.24108
2.11233
1.99446
1.88627
1.78675
1.695
1.61026
1.53183
1.45911
1.39157
1.32874
1.27019
1.21555
1.1645
1.11672
1.07196
1.02996
0.990525
0.95344
0.918538
0.885652
0.854643
0.825371
0.797724
0.771582
0.746856
0.723443
0.701271
0.680251
0.660326
0.641418
0.623483
0.606451
0.590287
0.574935
0.560359
0.546521
0.533381
0.52092
0.509088
0.497891
0.48726
0.477234
0.467726
0.458791
0.450349
0.44244
0.435034
0.428096
0.421721
0.415715
0.410384
0.405294
0.401041
0.396871
0.393755
0.390564
0.388585
0.386658
0.385593
0.385806
0.386149
0.387156
0.388785
0.391791
0.395429
0.399623
0.406446
0.411846
0.422761
0.430042
0.444793
0.456259
0.473629
0.492659
0.511083
0.540619
0.561051
0.601511
0.627191
13.7496
11.9598
10.4921
9.27437
8.25369
7.3902
6.65359
6.02043
5.47246
4.9952
4.57714
4.20897
3.88315
3.5935
3.33491
3.10314
2.89464
2.70644
2.53601
2.3812
2.24019
2.11141
1.99348
1.88525
1.78568
1.6939
1.60911
1.53064
1.45789
1.39031
1.32744
1.26886
1.21419
1.1631
1.11529
1.0705
1.02847
0.989001
0.951887
0.916956
0.884042
0.853004
0.823705
0.79603
0.769861
0.745109
0.721669
0.699472
0.678425
0.658476
0.639542
0.621583
0.604525
0.58834
0.572961
0.558367
0.544502
0.531346
0.51886
0.507013
0.495795
0.48515
0.475113
0.465583
0.456658
0.44818
0.440314
0.432851
0.425996
0.419545
0.413663
0.408253
0.403316
0.399007
0.395007
0.391902
0.388832
0.387083
0.385069
0.384673
0.384741
0.385576
0.386648
0.388824
0.392478
0.395992
0.402132
0.40851
0.416509
0.427747
0.437082
0.454714
0.466589
0.490997
0.507569
0.537537
0.565813
0.597974
0.643413
0.679066
13.7496
11.9598
10.4921
9.27435
8.25364
7.39012
6.65346
6.02026
5.47223
4.99492
4.57681
4.20858
3.88271
3.593
3.33435
3.10252
2.89397
2.70572
2.53524
2.38038
2.23932
2.11049
1.99251
1.88424
1.78463
1.6928
1.60797
1.52947
1.45667
1.38905
1.32615
1.26753
1.21283
1.1617
1.11386
1.06903
1.02698
0.987474
0.95033
0.915368
0.882425
0.851357
0.82203
0.794325
0.76813
0.743348
0.719882
0.697656
0.676584
0.656607
0.637647
0.619662
0.602578
0.586369
0.570964
0.556349
0.542456
0.529284
0.516769
0.504911
0.493663
0.483013
0.472947
0.463417
0.454472
0.445991
0.438126
0.430645
0.423836
0.417335
0.411563
0.406065
0.401312
0.396889
0.393144
0.389926
0.387163
0.385413
0.383578
0.383579
0.383822
0.384687
0.386152
0.389377
0.392682
0.397729
0.404497
0.411439
0.42223
0.432742
0.446723
0.464233
0.480295
0.508047
0.527681
0.568334
0.594116
0.646757
0.689857
0.751524
13.7496
11.9598
10.4921
9.27432
8.25359
7.39003
6.65333
6.02009
5.47201
4.99465
4.57648
4.2082
3.88227
3.59251
3.3338
3.10192
2.89331
2.70501
2.53447
2.37957
2.23846
2.10957
1.99155
1.88323
1.78358
1.69171
1.60684
1.52829
1.45545
1.3878
1.32486
1.2662
1.21146
1.1603
1.11243
1.06757
1.02548
0.985943
0.948768
0.913773
0.880801
0.849701
0.820345
0.79261
0.766387
0.741574
0.718082
0.695825
0.674727
0.654721