/*--------------------------------*- C++ -*----------------------------------*\
| =========                 |                                                 |
| \\      /  F ield         | OpenFOAM: The Open Source CFD Toolbox           |
|  \\    /   O peration     | Version:  2406                                  |
|   \\  /    A nd           | Website:  www.openfoam.com                      |
|    \\/     M anipulation  |                                                 |
\*---------------------------------------------------------------------------*/
FoamFile
{
    version     2.0;
    format      ascii;
    arch        "LSB;label=32;scalar=64";
    class       volScalarField;
    location    "2000";
    object      p;
}
// * * * * * * * * * * * * * * * * * * * * * * * * * * * * * * * * * * * * * //

dimensions      [0 2 -2 0 0 0 0];

internalField   nonuniform List<scalar> 
190000
(
32.7386
31.9609
31.3534
31.0568
30.8597
30.6609
30.4725
30.3123
30.1761
30.0541
29.9417
29.8374
29.7392
29.6451
29.5533
29.4627
29.3725
29.2817
29.1898
29.0961
29.0003
28.9021
28.8011
28.6972
28.5901
28.4796
28.3656
28.248
28.1265
28.001
27.8715
27.7377
27.5992
27.4555
27.3064
27.1518
26.9917
26.826
26.6543
26.4766
26.2924
26.1017
25.9041
25.6994
25.4872
25.2672
25.039
24.8025
24.5571
24.3026
24.0385
23.7644
23.48
23.1847
22.8783
22.5602
22.2299
21.887
21.5311
21.1615
20.7778
20.3796
19.9661
19.537
19.0916
18.6295
18.15
17.6526
17.1368
16.6019
16.0475
15.4729
14.8776
14.2612
13.623
12.9626
12.2796
11.5734
10.8437
10.0902
9.31244
8.51023
7.68336
6.83166
5.95507
5.05358
4.12726
3.17627
2.20088
1.20142
0.178356
-0.867757
-1.93625
-3.02634
-4.13713
-5.26763
-6.41669
-7.58309
-8.76547
-9.96238
31.6957
31.4243
31.1681
31.0111
30.878
30.7237
30.5606
30.4069
30.2662
30.136
30.0141
29.8998
29.7924
29.6904
29.5921
29.4961
29.4014
29.307
29.212
29.1159
29.018
28.9181
28.8157
28.7106
28.6025
28.4911
28.3764
28.2582
28.1361
28.0101
27.8799
27.7452
27.6057
27.4613
27.3117
27.1569
26.9967
26.8308
26.659
26.4812
26.2971
26.1064
25.9088
25.7041
25.4919
25.2719
25.0439
24.8074
24.5621
24.3077
24.0436
23.7697
23.4854
23.1903
22.8839
22.5659
22.2358
21.8931
21.5373
21.1679
20.7844
20.3863
19.973
19.5441
19.0989
18.637
18.1577
17.6605
17.1449
16.6102
16.056
15.4816
14.8865
14.2702
13.6322
12.972
12.289
11.583
10.8534
10.0999
9.32215
8.51994
7.69301
6.84123
5.9645
5.06284
4.13628
3.18502
2.20928
1.20944
0.185921
-0.860686
-1.92975
-3.02045
-4.13194
-5.26316
-6.41304
-7.58027
-8.76357
-9.96141
31.3529
31.2948
31.1469
30.9788
30.8225
30.6713
30.5226
30.3821
30.2528
30.1329
30.0202
29.9133
29.8113
29.7129
29.617
29.5225
29.4285
29.3342
29.2391
29.1427
29.0446
28.9443
28.8415
28.736
28.6275
28.5159
28.4009
28.2823
28.1599
28.0336
27.9031
27.7681
27.6285
27.4841
27.3347
27.1801
27.0198
26.8539
26.6821
26.5042
26.32
26.1291
25.9314
25.7265
25.5141
25.294
25.0658
24.8291
24.5837
24.3291
24.0649
23.7908
23.5064
23.2111
22.9047
22.5866
22.2563
21.9135
21.5576
21.1881
20.8045
20.4063
19.9929
19.5639
19.1186
18.6565
18.177
17.6796
17.1637
16.6288
16.0742
15.4994
14.9039
14.2872
13.6486
12.9878
12.3041
11.5973
10.8668
10.1123
9.33351
8.53009
7.70184
6.8486
5.97029
5.06689
4.13847
3.18519
2.2073
1.20514
0.17917
-0.870058
-1.94187
-3.03549
-4.15001
-5.28442
-6.43758
-7.60825
-8.79505
-9.99652
31.1494
31.1119
31.0037
30.8673
30.7399
30.6205
30.501
30.3821
30.2673
30.1574
30.0516
29.9492
29.8496
29.7523
29.6567
29.562
29.4676
29.3728
29.2772
29.1803
29.0817
28.9811
28.878
28.7723
28.6637
28.552
28.4369
28.3182
28.1958
28.0695
27.939
27.8041
27.6646
27.5202
27.3707
27.2159
27.0556
26.8897
26.718
26.5401
26.3559
26.1651
25.9674
25.7626
25.5502
25.3301
25.1019
24.8652
24.6197
24.365
24.1007
23.8265
23.5419
23.2465
22.9399
22.6216
22.2912
21.9481
21.5919
21.2221
20.8382
20.4396
20.0258
19.5963
19.1504
18.6878
18.2077
17.7095
17.1929
16.657
16.1015
15.5257
14.929
14.311
13.671
13.0086
12.3233
11.6146
10.8822
10.1256
9.34443
8.53852
7.7076
6.8515
5.97013
5.06348
4.13161
3.17467
2.19292
1.18671
0.15648
-0.897189
-1.97363
-3.07205
-4.19154
-5.33105
-6.48946
-7.66548
-8.85774
-10.0647
30.9904
30.9606
30.8886
30.7917
30.6906
30.5891
30.4841
30.377
30.271
30.1678
30.0674
29.9691
29.8729
29.7782
29.6847
29.5917
29.4986
29.4049
29.3102
29.2142
29.1163
29.0162
28.9138
28.8087
28.7006
28.5894
28.4747
28.3566
28.2346
28.1086
27.9785
27.8438
27.7045
27.5603
27.4111
27.2567
27.0969
26.9315
26.7602
26.5827
26.3989
26.2084
26.011
25.8064
25.5942
25.3743
25.1462
24.9096
24.6642
24.4096
24.1454
23.8712
23.5866
23.2911
22.9844
22.666
22.3354
21.9921
21.6357
21.2656
20.8813
20.4824
20.0681
19.6381
19.1917
18.7283
18.2474
17.7485
17.2309
16.694
16.1373
15.5601
14.962
14.3424
13.7007
13.0364
12.349
11.638
10.9031
10.1438
9.35979
8.55075
7.71646
6.85675
5.97151
5.06073
4.12447
3.16288
2.1762
1.1648
0.12912
-0.930263
-2.01266
-3.11728
-4.24319
-5.38934
-6.55456
-7.73757
-8.93695
-10.1512
30.8692
30.848
30.7972
30.7234
30.6391
30.5505
30.4584
30.3636
30.2683
30.1737
30.0802
29.9876
29.8959
29.8047
29.7137
29.6227
29.5312
29.4388
29.3451
29.2498
29.1526
29.0533
28.9514
28.8469
28.7394
28.6287
28.5146
28.397
28.2755
28.1501
28.0204
27.8863
27.7475
27.604
27.4555
27.3018
27.1426
26.9777
26.8069
26.6299
26.4466
26.2565
26.0596
25.8554
25.6436
25.4241
25.1963
24.9601
24.7149
24.4606
24.1966
23.9226
23.6382
23.3429
23.0363
22.7179
22.3873
22.044
21.6875
21.3173
20.9329
20.5337
20.1191
19.6887
19.2418
18.7779
18.2964
17.7967
17.2781
16.7402
16.1824
15.6039
15.0044
14.3831
13.7396
13.0732
12.3836
11.6702
10.9325
10.1702
9.38294
8.57036
7.73223
6.86837
5.97867
5.0631
4.12171
3.15466
2.16218
1.14463
0.102474
-0.963722
-2.05326
-3.16532
-4.29897
-5.45312
-6.62659
-7.81806
-9.02609
-10.2491
30.7764
30.7602
30.7212
30.6627
30.5929
30.5172
30.4371
30.3534
30.2674
30.1804
30.0931
30.0055
29.9178
29.8299
29.7416
29.6527
29.563
29.4721
29.3797
29.2855
29.1894
29.091
28.99
28.8863
28.7796
28.6697
28.5564
28.4395
28.3188
28.1941
28.0651
27.9318
27.7938
27.6511
27.5033
27.3502
27.1917
27.0275
26.8574
26.6812
26.4985
26.3091
26.1128
25.9092
25.6981
25.4791
25.2519
25.0162
24.7716
24.5177
24.2542
23.9806
23.6966
23.4016
23.0954
22.7773
22.447
22.1039
21.7475
21.3774
20.993
20.5937
20.179
19.7484
19.3012
18.8369
18.3548
17.8545
17.3352
16.7963
16.2374
15.6577
15.0566
14.4337
13.7882
13.1197
12.4277
11.7116
10.9709
10.2053
9.41445
8.5979
7.75545
6.88689
5.9921
5.07104
4.12375
3.15039
2.15118
1.12648
0.076757
-0.997413
-2.09532
-3.21613
-4.35888
-5.52248
-6.7057
-7.90719
-9.12548
-10.359
30.7046
30.6917
30.6606
30.6131
30.5548
30.4897
30.4192
30.3444
30.2663
30.1862
30.1047
30.0222
29.9387
29.8544
29.7691
29.6828
29.5952
29.5061
29.4153
29.3226
29.2277
29.1304
29.0305
28.9278
28.8221
28.7131
28.6007
28.4847
28.3648
28.241
28.1129
27.9804
27.8433
27.7014
27.5544
27.4023
27.2446
27.0813
26.912
26.7366
26.5547
26.3662
26.1707
25.9679
25.7575
25.5393
25.3128
25.0778
24.8339
24.5807
24.3178
24.0449
23.7614
23.467
23.1613
22.8437
22.5138
22.1711
21.815
21.4452
21.0609
20.6618
20.2471
19.8164
19.3691
18.9045
18.422
17.9211
17.401
16.8613
16.3013
15.7203
15.1177
14.493
13.8455
13.1747
12.48
11.761
11.0171
10.2478
9.45289
8.63189
7.78456
6.91068
6.01011
5.08279
4.12876
3.14816
2.14121
1.10827
0.0498129
-1.03358
-2.14119
-3.27215
-4.42549
-5.60008
-6.79466
-8.00784
-9.23811
-10.4838
30.6496
30.639
30.6133
30.5738
30.5243
30.4676
30.4052
30.338
30.267
30.1932
30.1172
30.0395
29.9602
29.8794
29.7972
29.7135
29.6281
29.541
29.452
29.3608
29.2673
29.1714
29.0727
28.9711
28.8665
28.7586
28.6473
28.5323
28.4134
28.2906
28.1635
28.032
27.8959
27.7549
27.609
27.4578
27.3011
27.1388
26.9705
26.7961
26.6152
26.4276
26.233
26.0312
25.8218
25.6044
25.3789
25.1448
24.9017
24.6494
24.3873
24.1152
23.8325
23.5389
23.2338
22.9169
22.5876
22.2455
21.8899
21.5205
21.1367
20.7378
20.3233
19.8927
19.4453
18.9805
18.4977
17.9963
17.4756
16.9351
16.3739
15.7916
15.1875
14.5609
13.9113
13.2381
12.5406
11.8184
11.0709
10.2976
9.49823
8.67231
7.81955
6.93973
6.03268
5.09833
4.1367
3.14792
2.13222
1.08993
0.0215402
-1.07236
-2.19103
-3.33359
-4.49904
-5.68622
-6.89382
-8.12042
-9.36444
-10.6242
30.6083
30.5994
30.5777
30.5441
30.5013
30.4515
30.3958
30.3351
30.2702
30.202
30.1311
30.0578
29.9825
29.9052
29.826
29.745
29.662
29.577
29.4899
29.4005
29.3086
29.2141
29.1168
29.0165
28.9132
28.8065
28.6963
28.5824
28.4647
28.343
28.217
28.0867
27.9517
27.8118
27.667
27.5169
27.3614
27.2001
27.033
26.8597
26.6799
26.4934
26.2999
26.0992
25.8909
25.6746
25.4502
25.2171
24.9751
24.7238
24.4627
24.1916
23.9098
23.6171
23.313
22.9969
22.6684
22.327
21.9722
21.6034
21.2201
20.8216
20.4075
19.9771
19.5298
19.065
18.582
18.0802
17.5589
17.0176
16.4554
15.8718
15.2661
14.6376
13.9858
13.3099
12.6094
11.8838
11.1324
10.3548
9.5505
8.71917
7.86043
6.97404
6.0598
5.11763
4.14754
3.14962
2.1241
1.07132
-0.0082305
-1.11395
-2.2451
-3.40076
-4.5799
-5.78132
-7.00367
-8.24547
-9.50508
-10.7807
30.5786
30.5709
30.5522
30.523
30.4855
30.4413
30.3912
30.3361
30.2765
30.2133
30.1469
30.0778
30.0062
29.9323
29.8561
29.7778
29.6973
29.6145
29.5293
29.4418
29.3516
29.2587
29.1629
29.0641
28.9621
28.8567
28.7478
28.6352
28.5188
28.3983
28.2736
28.1444
28.0107
27.8721
27.7285
27.5796
27.4253
27.2653
27.0994
26.9274
26.7488
26.5636
26.3714
26.1719
25.9649
25.7499
25.5267
25.2948
25.054
24.8039
24.5441
24.2741
23.9935
23.7019
23.3988
23.0838
22.7563
22.4158
22.0619
21.6939
21.3113
20.9134
20.4998
20.0698
19.6227
19.158
18.6749
18.1728
17.6511
17.1089
16.5458
15.9609
15.3535
14.7231
14.0689
13.3903
12.6867
11.9573
11.2018
10.4195
9.60994
8.77271
7.90744
7.01385
6.09171
5.14092
4.16146
3.15342
2.11701
1.05257
-0.0394144
-1.15833
-2.30341
-3.47373
-4.66821
-5.8856
-7.12452
-8.38341
-9.66056
-10.9541
30.5589
30.5522
30.5357
30.51
30.4767
30.437
30.3916
30.3412
30.2862
30.2274
30.1652
30.0999
30.0318
29.9611
29.8879
29.8122
29.7341
29.6536
29.5705
29.4848
29.3965
29.3052
29.2111
29.1138
29.0133
28.9094
28.8019
28.6907
28.5756
28.4565
28.3331
28.2053
28.0729
27.9357
27.7934
27.646
27.493
27.3344
27.1699
26.9992
26.8221
26.6383
26.4475
26.2494
26.0438
25.8302
25.6084
25.378
25.1386
24.8898
24.6313
24.3627
24.0835
23.7932
23.4914
23.1776
22.8513
22.5119
22.159
21.792
21.4103
21.0132
20.6003
20.1708
19.7242
19.2596
18.7766
18.2743
17.7522
17.2094
16.6452
16.0591
15.4501
14.8177
14.1611
13.4796
12.7726
12.0394
11.2794
10.492
9.6768
8.8332
7.96085
7.05942
6.12866
5.16843
4.1787
3.15952
2.11111
1.03379
-0.0719636
-1.20551
-2.36607
-3.55268
-4.76423
-5.99943
-7.25682
-8.53479
-9.83153
-11.1451
30.5479
30.5419
30.5272
30.5042
30.4743
30.4384
30.397
30.3506
30.2996
30.2447
30.1862
30.1244
30.0596
29.9919
29.9216
29.8485
29.7729
29.6946
29.6136
29.5299
29.4434
29.354
29.2615
29.1658
29.0669
28.9645
28.8586
28.7489
28.6353
28.5176
28.3957
28.2694
28.1384
28.0027
27.8619
27.7159
27.5645
27.4074
27.2444
27.0753
26.8997
26.7174
26.5282
26.3317
26.1276
25.9156
25.6953
25.4665
25.2287
24.9815
24.7246
24.4575
24.1798
23.891
23.5906
23.2782
22.9533
22.6153
22.2637
21.8978
21.5172
21.1211
20.709
20.2802
19.8341
19.37
18.8871
18.3848
17.8623
17.319
16.754
16.1665
15.556
14.9215
14.2624
13.578
12.8675
12.1302
11.3655
10.5727
9.75141
8.90097
8.02098
7.11106
6.17095
5.20046
4.19951
3.16816
2.10659
1.01513
-0.10576
-1.25543
-2.43306
-3.63769
-4.86814
-6.12307
-7.40095
-8.7001
-10.0186
-11.3544
30.5447
30.5393
30.526
30.5052
30.4781
30.4453
30.4072
30.3642
30.3168
30.2654
30.2102
30.1516
30.0899
30.0251
29.9574
29.8869
29.8137
29.7376
29.6588
29.5771
29.4925
29.4049
29.3142
29.2203
29.123
29.0223
28.9179
28.8098
28.6978
28.5817
28.4614
28.3366
28.2073
28.0731
27.934
27.7896
27.6398
27.4843
27.323
27.1555
26.9816
26.801
26.6135
26.4187
26.2164
26.0061
25.7876
25.5605
25.3244
25.079
24.8238
24.5584
24.2824
23.9953
23.6967
23.3859
23.0625
22.726
22.3758
22.0114
21.632
21.2371
20.8261
20.3982
19.9528
19.4892
19.0067
18.5045
17.9818
17.438
16.8721
16.2835
15.6714
15.0349
14.3733
13.6858
12.9716
12.23
11.4604
10.6619
9.83413
8.97638
8.08819
7.16916
6.21895
5.23735
4.22424
3.17965
2.10373
0.996809
-0.140649
-1.30799
-2.5044
-3.72884
-4.98011
-6.25681
-7.55734
-8.87988
-10.2225
-11.5829
30.5484
30.5435
30.5314
30.5125
30.4876
30.4574
30.4222
30.3822
30.3379
30.2895
30.2373
30.1817
30.1228
30.0608
29.9957
29.9277
29.8567
29.7829
29.7062
29.6266
29.5439
29.4582
29.3693
29.2772
29.1816
29.0826
28.98
28.8736
28.7632
28.6488
28.5302
28.4071
28.2794
28.147
28.0095
27.8669
27.7189
27.5652
27.4056
27.2399
27.0679
26.8891
26.7035
26.5105
26.3101
26.1017
25.8851
25.66
25.4258
25.1823
24.9291
24.6656
24.3915
24.1063
23.8095
23.5005
23.179
22.8442
22.4956
22.1327
21.7549
21.3613
20.9515
20.5248
20.0803
19.6174
19.1354
18.6334
18.1107
17.5665
17
16.4103
15.7966
15.1581
14.4939
13.8033
13.0853
12.3393
11.5644
10.76
9.92537
9.05985
8.16293
7.23413
6.27307
5.2795
4.25325
3.19432
2.10283
0.979088
-0.176441
-1.3631
-2.58004
-3.82621
-5.10035
-6.40098
-7.72641
-9.07473
-10.4439
-11.8315
30.5585
30.554
30.5429
30.5254
30.5025
30.4745
30.4417
30.4044
30.3628
30.3171
30.2678
30.2148
30.1586
30.0991
30.0365
29.9708
29.9022
29.8306
29.756
29.6784
29.5977
29.5139
29.4269
29.3366
29.2429
29.1457
29.0448
28.9402
28.8316
28.719
28.6021
28.4808
28.3549
28.2243
28.0887
27.9479
27.8017
27.6499
27.4923
27.3285
27.1584
26.9817
26.798
26.6072
26.4087
26.2024
25.9879
25.7649
25.5328
25.2915
25.0403
24.779
24.507
24.2239
23.9291
23.6222
23.3026
22.9698
22.6231
22.262
21.8858
21.4939
21.0855
20.6601
20.2167
19.7548
19.2734
18.7719
18.2493
17.7049
17.1377
16.547
15.9319
15.2914
14.6247
13.9308
13.209
12.4584
11.6781
10.8675
10.0256
9.15185
8.24565
7.30645
6.3338
5.32738
4.287
3.21259
2.10425
0.962275
-0.212892
-1.42059
-2.65994
-3.92986
-5.22903
-6.55589
-7.90865
-9.28529
-10.6836
-12.1011
30.5745
30.5703
30.56
30.5438
30.5225
30.4964
30.4658
30.4307
30.3915
30.3484
30.3015
30.251
30.1972
30.1401
30.0799
30.0165
29.9501
29.8807
29.8082
29.7326
29.6539
29.5721
29.487
29.3986
29.3068
29.2114
29.1124
29.0096
28.9029
28.7921
28.6771
28.5577
28.4338
28.3051
28.1714
28.0326
27.8884
27.7386
27.583
27.4214
27.2534
27.0788
26.8973
26.7086
26.5124
26.3083
26.0961
25.8753
25.6455
25.4064
25.1576
24.8986
24.6289
24.3481
24.0556
23.7509
23.4336
23.1029
22.7583
22.3992
22.025
21.6349
21.2282
20.8042
20.3622
19.9014
19.4209
18.92
18.3977
17.8533
17.2857
16.6941
16.0776
15.4351
14.7659
14.0689
13.3431
12.5878
11.8019
10.9847
10.1353
9.25293
8.33692
7.38667
6.40167
5.38153
4.32599
3.23494
2.10844
0.946745
-0.249705
-1.48025
-2.744
-4.03982
-5.36632
-6.72187
-8.10457
-9.51227
-10.9426
-12.3929
30.5958
30.5919
30.5823
30.5672
30.5473
30.5229
30.4941
30.4611
30.424
30.3831
30.3385
30.2904
30.2389
30.1841
30.126
30.0649
30.0006
29.9333
29.8629
29.7894
29.7127
29.6329
29.5498
29.4633
29.3734
29.28
29.1829
29.082
28.9772
28.8684
28.7554
28.6379
28.516
28.3893
28.2577
28.1209
27.9789
27.8313
27.6778
27.5184
27.3526
27.1803
27.0011
26.8148
26.6209
26.4193
26.2095
25.9911
25.7639
25.5273
25.2809
25.0244
24.7572
24.4789
24.1889
23.8868
23.5718
23.2435
22.9013
22.5445
22.1724
21.7843
21.3796
20.9574
20.5169
20.0575
19.5781
19.078
18.5563
18.0119
17.4441
16.8518
16.234
15.5897
14.918
14.2178
13.4881
12.728
11.9364
11.1124
10.2551
9.36366
8.43734
7.47542
6.47731
5.44255
4.37081
3.26192
2.11589
0.932938
-0.286523
-1.54183
-2.83207
-4.15608
-5.51239
-6.89927
-8.31472
-9.75643
-11.2218
-12.7081
30.6222
30.6185
30.6095
30.5954
30.5767
30.5537
30.5266
30.4954
30.4603
30.4214
30.3789
30.3329
30.2835
30.2309
30.175
30.116
30.0538
29.9886
29.9202
29.8487
29.7741
29.6963
29.6151
29.5306
29.4427
29.3513
29.2562
29.1573
29.0545
28.9477
28.8367
28.7214
28.6015
28.477
28.3475
28.213
28.0732
27.9278
27.7767
27.6196
27.4562
27.2863
27.1096
26.9257
26.7344
26.5354
26.3281
26.1124
25.8878
25.6539
25.4103
25.1565
24.8921
24.6165
24.3292
24.0297
23.7175
23.3918
23.0521
22.6978
22.3281
21.9424
21.5398
21.1196
20.681
20.2232
19.7452
19.2461
18.7251
18.1812
17.6133
17.0204
16.4015
15.7555
15.0814
14.3781
13.6445
12.8794
12.082
11.251
10.3856
9.48471
8.54758
7.57337
6.5614
5.51113
4.42213
3.29417
2.1272
0.921371
-0.322918
-1.60501
-2.92399
-4.27862
-5.66739
-7.08846
-8.53968
-10.0186
-11.5224
-13.0482
30.6532
30.6498
30.6414
30.628
30.6104
30.5888
30.5631
30.5336
30.5002
30.4632
30.4226
30.3786
30.3312
30.2806
30.2268
30.1698
30.1097
30.0465
29.9802
29.9107
29.8381
29.7623
29.6832
29.6007
29.5148
29.4254
29.3323
29.2355
29.1349
29.0302
28.9213
28.8081
28.6905
28.5681
28.441
28.3087
28.1712
28.0283
27.8796
27.725
27.5641
27.3968
27.2227
27.0415
26.8529
26.6565
26.4521
26.2392
26.0175
25.7864
25.5457
25.2949
25.0333
24.7607
24.4764
24.1798
23.8705
23.5477
23.2109
22.8593
22.4923
22.1091
21.709
21.2911
20.8546
20.3986
19.9223
19.4246
18.9045
18.3612
17.7935
17.2002
16.5805
15.933
15.2566
14.5503
13.8127
13.0428
12.2394
11.4013
10.5274
9.6168
8.66839
7.6813
6.65474
5.58804
4.48071
3.33242
2.14303
0.912647
-0.358377
-1.6694
-3.01948
-4.40736
-5.83145
-7.28978
-8.78008
-10.2997
-11.8456
-13.4145
30.6887
30.6854
30.6775
30.6649
30.6483
30.6278
30.6035
30.5754
30.5436
30.5083
30.4695
30.4274
30.3819
30.3333
30.2814
30.2264
30.1683
30.1071
30.0428
29.9754
29.9048
29.831
29.7539
29.6735
29.5897
29.5023
29.4114
29.3167
29.2182
29.1157
29.009
28.8981
28.7827
28.6627
28.5379
28.4081
28.2731
28.1327
27.9865
27.8345
27.6763
27.5117
27.3404
27.162
26.9762
26.7828
26.5813
26.3714
26.1527
25.9248
25.6872
25.4394
25.1811
24.9116
24.6305
24.3371
24.0309
23.7113
23.3775
23.029
22.665
22.2846
21.8872
21.4719
21.0378
20.584
20.1096
19.6135
19.0948
18.5523
17.985
17.3917
16.7713
16.1225
15.4441
14.7348
13.9934
13.2186
12.4092
11.5639
10.6815
9.76073
8.8006
7.80006
6.75817
5.67417
4.54742
3.3775
2.16418
0.907484
-0.392283
-1.7345
-3.11824
-4.54218
-6.00466
-7.50359
-9.03653
-10.6006
-12.1926
-13.8089
30.7283
30.7252
30.7177
30.7058
30.6901
30.6706
30.6475
30.6208
30.5905
30.5568
30.5197
30.4793
30.4357
30.3888
30.3389
30.2858
30.2297
30.1705
30.1081
30.0427
29.9741
29.9024
29.8274
29.749
29.6673
29.5821
29.4933
29.4008
29.3045
29.2042
29.0999
28.9913
28.8783
28.7607
28.6384
28.5111
28.3787
28.2409
28.0975
27.9482
27.7928
27.631
27.4626
27.2872
27.1045
26.9141
26.7158
26.5091
26.2936
26.0689
25.8346
25.5903
25.3353
25.0692
24.7915
24.5016
24.1988
23.8826
23.5522
23.207
22.8462
22.469
22.0746
21.6622
21.2308
20.7795
20.3074
19.8133
19.2961
18.7549
18.1883
17.5952
16.9744
16.3245
15.6442
14.9323
14.1872
13.4076
12.5923
11.7396
10.8484
9.91735
8.94513
7.93059
6.87268
5.77049
4.62324
3.43037
2.19155
0.906714
-0.423908
-1.79973
-3.21984
-4.68286
-6.18707
-7.73024
-9.30974
-10.9225
-12.5649
-14.2331
30.7719
30.769
30.7619
30.7506
30.7356
30.7171
30.6951
30.6696
30.6408
30.6085
30.573
30.5343
30.4924
30.4473
30.3992
30.348
30.2938
30.2365
30.1761
30.1127
30.0462
29.9764
29.9035
29.8273
29.7477
29.6647
29.5781
29.4878
29.3938
29.2959
29.1939
29.0877
28.9772
28.8622
28.7424
28.6178
28.4881
28.353
28.2124
28.066
27.9135
27.7548
27.5894
27.4171
27.2376
27.0505
26.8554
26.6521
26.4401
26.2189
25.9881
25.7473
25.496
25.2336
24.9595
24.6733
24.3742
24.0616
23.7349
23.3933
23.036
22.6623
22.2713
21.8621
21.4338
20.9854
20.5158
20.024
19.5088
18.9691
18.4036
17.8111
17.1902
16.5395
15.8577
15.1432
14.3947
13.6105
12.7892
11.9293
11.0293
10.0876
9.10296
8.07395
6.99936
5.8781
4.70926
3.49211
2.22618
0.911299
-0.4524
-1.86439
-3.32377
-4.82914
-6.37869
-7.97005
-9.60039
-11.2663
-12.9641
-14.6892
30.8192
30.8164
30.8097
30.799
30.7847
30.7671
30.7461
30.7218
30.6942
30.6634
30.6294
30.5922
30.552
30.5087
30.4623
30.413
30.3606
30.3052
30.2468
30.1854
30.1209
30.0532
29.9824
29.9083
29.8309
29.75
29.6657
29.5778
29.4861
29.3906
29.291
29.1874
29.0794
28.967
28.8499
28.728
28.6011
28.4689
28.3312
28.1878
28.0384
27.8828
27.7207
27.5516
27.3755
27.1918
27.0003
26.8005
26.5921
26.3746
26.1476
25.9106
25.6631
25.4045
25.1344
24.8521
24.557
24.2484
23.9257
23.588
23.2346
22.8647
22.4774
22.0717
21.6468
21.2016
20.735
20.2459
19.733
19.1953
18.6313
18.0397
17.4191
16.768
16.085
15.3684
14.6166
13.828
13.001
12.1339
11.2249
10.2726
9.2752
8.23127
7.13938
5.99823
4.80671
3.56394
2.26926
0.922351
-0.47676
-1.92764
-3.4294
-4.98063
-6.57945
-8.22332
-9.90922
-11.6334
-13.3918
-15.1795
30.8701
30.8675
30.861
30.8508
30.8372
30.8204
30.8005
30.7773
30.7509
30.7214
30.6888
30.6531
30.6145
30.5728
30.5282
30.4806
30.4301
30.3766
30.3202
30.2607
30.1982
30.1326
30.0639
29.992
29.9168
29.8382
29.7562
29.6706
29.5813
29.4883
29.3913
29.2902
29.1849
29.0752
28.9609
28.8418
28.7178
28.5886
28.454
28.3137
28.1675
28.0152
27.8564
27.6908
27.5182
27.3381
27.1502
26.9542
26.7496
26.536
26.313
26.08
25.8366
25.5822
25.3163
25.0382
24.7473
24.443
24.1245
23.791
23.4419
23.0761
22.6928
22.2912
21.87
21.4284
20.9652
20.4792
19.9691
19.4338
18.8717
18.2815
17.6616
17.0105
16.3266
15.6082
14.8536
14.0609
13.2284
12.3542
11.4364
10.4733
9.46303
8.40382
7.29406
6.13223
4.917
3.64726
2.32215
0.941169
-0.495803
-1.98844
-3.53591
-5.13683
-6.78919
-8.49033
-10.237
-12.0251
-13.85
-15.7065
30.9244
30.9219
30.9157
30.906
30.893
30.877
30.8579
30.8358
30.8105
30.7823
30.7511
30.7169
30.6798
30.6397
30.5968
30.551
30.5023
30.4507
30.3961
30.3387
30.2782
30.2147
30.1481
30.0784
30.0054
29.9291
29.8495
29.7663
29.6795
29.589
29.4946
29.3961
29.2935
29.1866
29.0752
28.9591
28.8381
28.712
28.5805
28.4435
28.3007
28.1518
27.9965
27.8345
27.6656
27.4893
27.3053
27.1132
26.9126
26.7031
26.4843
26.2555
26.0165
25.7665
25.505
25.2314
24.9451
24.6453
24.3314
24.0025
23.6579
23.2966
22.9178
22.5205
22.1036
21.666
21.2066
20.7241
20.2173
19.6848
19.1251
18.5368
17.9181
17.2675
16.5833
15.8636
15.1064
14.31
13.4723
12.5913
11.6649
10.691
9.66774
8.59298
7.46488
6.28165
5.0417
3.74365
2.38641
0.969259
-0.508132
-2.04558
-3.64234
-5.29704
-7.00762
-8.77125
-10.5844
-12.4426
-14.3408
-16.273
30.9819
30.9794
30.9736
30.9643
30.952
30.9367
30.9185
30.8973
30.8732
30.8461
30.8162
30.7834
30.7478
30.7094
30.6681
30.624
30.5771
30.5273
30.4747
30.4192
30.3608
30.2994
30.235
30.1674
30.0967
30.0228
29.9455
29.8648
29.7805
29.6926
29.6009
29.5052
29.4054
29.3014
29.1929
29.0798
28.9619
28.8391
28.7109
28.5773
28.4379
28.2926
28.141
27.9828
27.8176
27.6453
27.4653
27.2774
27.081
26.8759
26.6614
26.4372
26.2027
25.9573
25.7006
25.4318
25.1503
24.8554
24.5464
24.2224
23.8827
23.5263
23.1524
22.7598
22.3475
21.9144
21.4593
20.9809
20.4778
19.9487
19.3919
18.806
18.1891
17.5396
16.8555
16.135
15.3759
14.5762
13.7338
12.8463
11.9115
10.927
9.89074
8.80026
7.65344
6.44816
5.18256
3.8549
2.46386
1.00837
-0.512106
-2.09759
-3.74746
-5.46041
-7.23432
-9.0662
-10.9522
-12.8875
-14.8664
-16.8823
31.0424
31.0401
31.0345
31.0257
31.0139
30.9993
30.9819
30.9617
30.9386
30.9127
30.8841
30.8527
30.8185
30.7816
30.742
30.6996
30.6544
30.6065
30.5558
30.5023
30.4459
30.3866
30.3244
30.2591
30.1907
30.1191
30.0443
29.9661
29.8844
29.7991
29.7101
29.6172
29.5204
29.4193
29.3139
29.204
29.0893
28.9697
28.845
28.7149
28.5792
28.4375
28.2897
28.1354
27.9743
27.8061
27.6303
27.4467
27.2548
27.0541
26.8443
26.6248
26.3951
26.1547
25.9029
25.6392
25.3629
25.0732
24.7694
24.4507
24.1163
23.7652
23.3965
23.0091
22.6019
22.1738
21.7235
21.2497
20.7509
20.2257
19.6724
19.0895
18.475
17.8271
17.1439
16.4231
15.6627
14.8604
14.0137
13.1202
12.1774
11.1827
10.1335
9.0273
7.86148
6.63364
5.34154
3.98305
2.55652
1.0605
-0.505799
-2.14273
-3.8498
-5.62582
-7.46865
-9.37515
-11.3412
-13.3613
-15.4294
-17.5379
31.1059
31.1037
31.0984
31.0899
31.0787
31.0647
31.0481
31.0288
31.0068
30.982
30.9546
30.9245
30.8918
30.8564
30.8184
30.7777
30.7343
30.6882
30.6394
30.5879
30.5336
30.4764
30.4163
30.3533
30.2873
30.2181
30.1458
30.0701
29.9911
29.9085
29.8223
29.7323
29.6384
29.5404
29.4381
29.3314
29.2201
29.104
28.9828
28.8563
28.7243
28.5865
28.4427
28.2924
28.1355
27.9715
27.8002
27.6211
27.4338
27.2379
27.0329
26.8184
26.5938
26.3585
26.112
25.8537
25.5828
25.2986
25.0004
24.6874
24.3587
24.0133
23.6502
23.2685
22.8669
22.4443
21.9993
21.5306
21.0367
20.516
19.9669
19.3876
18.7762
18.1307
17.4489
16.7287
15.9677
15.1634
14.3131
13.4142
12.464
11.4594
10.3977
9.27585
8.09094
6.84017
5.52081
4.13038
2.66673
1.12798
-0.486964
-2.17892
-3.94753
-5.79189
-7.70976
-9.69794
-11.7519
-13.8658
-16.0326
-18.2439
31.1721
31.1701
31.165
31.1569
31.1462
31.1329
31.117
31.0986
31.0775
31.0539
31.0277
30.9989
30.9676
30.9337
30.8973
30.8582
30.8166
30.7723
30.7255
30.6759
30.6236
30.5686
30.5108
30.45
30.3864
30.3197
30.2498
30.1768
30.1005
30.0207
29.9373
29.8503
29.7594
29.6645
29.5655
29.4622
29.3543
29.2417
29.1242
29.0014
28.8733
28.7395
28.5997
28.4537
28.3011
28.1416
27.9749
27.8005
27.618
27.427
27.2272
27.0178
26.7985
26.5687
26.3278
26.0751
25.81
25.5317
25.2394
24.9324
24.6098
24.2705
23.9136
23.5379
23.1424
22.7258
22.2867
21.8237
21.3353
20.8199
20.2756
19.7007
19.0931
18.4507
17.7713
17.0525
16.2916
15.4861
14.6331
13.7296
12.7726
11.7588
10.685
9.54783
8.34391
7.06999
5.72282
4.29945
2.79712
1.21354
-0.452984
-2.20366
-4.03844
-5.95682
-7.95641
-10.0342
-12.185
-14.4027
-16.6791
-19.0048
31.2411
31.2391
31.2342
31.2265
31.2163
31.2036
31.1885
31.1709
31.1508
31.1283
31.1033
31.0758
31.0458
31.0134
30.9785
30.9411
30.9013
30.8588
30.8139
30.7663
30.7161
30.6632
30.6076
30.5492
30.488
30.4237
30.3565
30.2861
30.2125
30.1355
30.0551
29.9711
29.8834
29.7917
29.696
29.5961
29.4918
29.3828
29.269
29.1502
29.0261
28.8964
28.7608
28.6192
28.4711
28.3162
28.1542
27.9847
27.8073
27.6215
27.4269
27.223
27.0093
26.7852
26.5501
26.3034
26.0443
25.7722
25.4863
25.1857
24.8695
24.5368
24.1865
23.8175
23.4286
23.0185
22.5859
22.1293
21.647
21.1375
20.5988
20.0291
19.4261
18.7878
18.1116
17.395
16.6353
15.8295
14.9747
14.0676
13.1047
12.0824
10.9972
9.84527
8.62266
7.32561
5.95028
4.49315
2.95075
1.32028
-0.400768
-2.21393
-4.1199
-6.11834
-8.20706
-10.3832
-12.6409
-14.9737
-17.3722
-19.8258
31.3125
31.3106
31.306
31.2986
31.2889
31.2768
31.2625
31.2457
31.2266
31.2051
31.1812
31.155
31.1264
31.0954
31.0621
31.0264
30.9882
30.9476
30.9046
30.859
30.8109
30.7602
30.7069
30.6508
30.592
30.5303
30.4656
30.3979
30.3271
30.2531
30.1756
30.0947
30.0102
29.9218
29.8295
29.7331
29.6324
29.5272
29.4173
29.3025
29.1824
29.057
28.9259
28.7887
28.6453
28.4952
28.3381
28.1737
28.0015
27.8211
27.632
27.4338
27.2259
27.0078
26.7788
26.5384
26.2858
26.0202
25.741
25.4472
25.1379
24.8121
24.4689
24.107
23.7253
23.3223
22.8968
22.4472
21.9718
21.469
20.9367
20.3729
19.7755
19.1421
18.4701
17.7569
16.9994
16.1945
15.339
14.4293
13.4616
12.432
11.3363
10.1703
8.92962
7.60973
6.20618
4.7147
3.13107
1.45173
-0.326663
-2.20624
-4.1886
-6.27358
-8.45971
-10.7438
-13.1198
-15.5808
-18.1157
-20.7131
31.3864
31.3845
31.3801
31.3731
31.3638
31.3524
31.3387
31.3228
31.3046
31.2841
31.2614
31.2364
31.2092
31.1797
31.1479
31.1138
31.0774
31.0386
30.9975
30.954
30.908
30.8594
30.8084
30.7547
30.6983
30.6392
30.5772
30.5122
30.4443
30.3732
30.2988
30.221
30.1397
30.0548
29.966
29.8732
29.7762
29.6748
29.5689
29.4582
29.3424
29.2213
29.0947
28.9622
28.8236
28.6785
28.5265
28.3673
28.2006
28.0258
27.8424
27.6501
27.4483
27.2365
27.0139
26.78
26.5341
26.2755
26.0033
25.7167
25.4147
25.0964
24.7607
24.4065
24.0325
23.6373
23.2195
22.7776
22.3098
21.8144
21.2894
20.7326
20.1417
19.5142
18.8475
18.1387
17.3846
16.5819
15.727
14.816
13.8449
12.8091
11.7042
10.5253
9.26742
7.9253
6.49379
4.9677
3.34196
1.61204
-0.226399
-2.1764
-4.2405
-6.41909
-8.71155
-11.1143
-13.6218
-16.2257
-18.914
-21.6733
31.4625
31.4607
31.4565
31.4499
31.4411
31.4302
31.4172
31.4021
31.3848
31.3654
31.3438
31.3201
31.2942
31.2661
31.2359
31.2034
31.1687
31.1318
31.0926
31.051
31.0072
30.9609
30.9121
30.8608
30.8069
30.7504
30.6911
30.6289
30.5639
30.4957
30.4245
30.3499
30.272
30.1905
30.1052
30.0161
29.923
29.8256
29.7237
29.6172
29.5058
29.3892
29.2672
29.1396
29.0059
28.8659
28.7192
28.5655
28.4043
28.2353
28.058
27.8718
27.6763
27.471
27.2551
27.0281
26.7893
26.5379
26.2731
25.9941
25.6999
25.3895
25.0619
24.7158
24.3501
23.9632
23.5539
23.1204
22.661
22.1739
21.657
21.108
20.5247
19.9043
19.2441
18.541
17.7917
16.9926
16.1397
15.229
14.2559
13.2156
12.103
10.9126
9.63879
8.27548
6.81671
5.25614
3.58784
1.8059
-0.095066
-2.11937
-4.27074
-6.55048
-8.95891
-11.4926
-14.1463
-16.9102
-19.7717
-22.7143
31.5407
31.5391
31.5351
31.5288
31.5204
31.5101
31.4978
31.4835
31.4671
31.4487
31.4282
31.4057
31.3812
31.3546
31.3258
31.295
31.2621
31.227
31.1897
31.1502
31.1084
31.0644
31.0179
30.9691
30.9177
30.8638
30.8072
30.7479
30.6858
30.6207
30.5526
30.4814
30.4068
30.3288
30.2472
30.1619
30.0727
29.9793
29.8816
29.7794
29.6725
29.5606
29.4434
29.3206
29.1921
29.0573
28.9161
28.768
28.6127
28.4496
28.2785
28.0987
27.9098
27.7112
27.5023
27.2825
27.0511
26.8072
26.5503
26.2792
25.9932
25.6912
25.3721
25.0348
24.6779
24.3001
23.8998
23.4755
23.0253
22.5474
22.0395
21.4995
20.9248
20.3127
19.6603
18.9643
18.2212
17.4272
16.5781
15.6694
14.6962
13.6532
12.5347
11.3347
10.0466
8.66369
7.17877
5.58445
3.8736
2.03866
0.0731396
-2.02925
-4.2734
-6.66218
-9.19707
-11.8752
-14.6918
-17.6358
-20.6939
-23.8452
31.621
31.6195
31.6157
31.6097
31.6018
31.592
31.5804
31.5669
31.5514
31.534
31.5147
31.4934
31.4702
31.445
31.4178
31.3886
31.3574
31.3242
31.2888
31.2514
31.2117
31.1699
31.1258
31.0794
31.0306
30.9793
30.9255
30.8691
30.81
30.748
30.6831
30.6152
30.5441
30.4697
30.3919
30.3104
30.2251
30.1359
30.0425
29.9448
29.8424
29.7352
29.6229
29.5053
29.382
29.2527
29.117
28.9748
28.8254
28.6686
28.5038
28.3306
28.1485
27.957
27.7553
27.543
27.3192
27.0834
26.8345
26.5719
26.2945
26.0013
25.6913
25.3633
25.0158
24.6477
24.2572
23.8428
23.4026
22.9347
22.4369
21.9069
21.342
20.7395
20.0962
19.4088
18.6735
17.8864
17.0429
16.1382
15.167
14.1235
13.0015
11.7941
10.494
9.09345
7.58411
5.95751
4.20462
2.31651
0.284814
-1.899
-4.24119
-6.74734
-9.4199
-12.2577
-15.2562
-18.4039
-21.6859
-25.0772
31.7032
31.7017
31.6981
31.6925
31.685
31.6758
31.6649
31.6521
31.6376
31.6212
31.6029
31.5829
31.561
31.5372
31.5116
31.4841
31.4546
31.4232
31.3898
31.3544
31.3169
31.2773
31.2356
31.1917
31.1454
31.0969
31.0459
30.9924
30.9363
30.8775
30.8159
30.7514
30.6838
30.6131