/*--------------------------------*- C++ -*----------------------------------*\
| =========                 |                                                 |
| \\      /  F ield         | OpenFOAM: The Open Source CFD Toolbox           |
|  \\    /   O peration     | Version:  2406                                  |
|   \\  /    A nd           | Website:  www.openfoam.com                      |
|    \\/     M anipulation  |                                                 |
\*---------------------------------------------------------------------------*/
FoamFile
{
    version     2.0;
    format      ascii;
    arch        "LSB;label=32;scalar=64";
    class       surfaceScalarField;
    location    "2000";
    object      phi;
}
// * * * * * * * * * * * * * * * * * * * * * * * * * * * * * * * * * * * * * //

dimensions      [0 3 -1 0 0 0 0];

oriented        oriented;

internalField   nonuniform List<scalar> 
378600
(
0.0486899
0.00131024
0.0468098
0.00188058
0.0447841
0.00202623
0.0427498
0.00203477
0.040775
0.00197525
0.0389164
0.00185902
0.0372107
0.00170615
0.0356721
0.00153899
0.0342999
0.00137259
0.0330849
0.00121539
0.0320149
0.00107028
0.031076
0.000939255
0.0302533
0.000822981
0.0295328
0.000720701
0.0289018
0.000631249
0.0283489
0.000553188
0.027864
0.000485099
0.0274386
0.000425569
0.0270656
0.000373266
0.0267388
0.000327001
0.0264532
0.000285763
0.0262047
0.000248667
0.0259899
0.000214985
0.025806
0.000184091
0.0256507
0.000155489
0.0255221
0.000128757
0.0254187
0.000103578
0.0253392
7.96843e-05
0.0252824
5.69283e-05
0.0252473
3.52375e-05
0.0252327
1.47864e-05
0.0252369
-3.98905e-06
0.0252584
-2.13763e-05
0.0252968
-3.82765e-05
0.0253521
-5.50681e-05
0.0254243
-7.21272e-05
0.0255138
-8.92902e-05
0.0256205
-0.000106547
0.0257447
-0.000124044
0.0258865
-0.000141653
0.026046
-0.000159384
0.0262234
-0.000177237
0.0264187
-0.000195177
0.026632
-0.000213204
0.0268635
-0.000231295
0.027113
-0.000249458
0.0273808
-0.000267658
0.0276669
-0.000285927
0.0279712
-0.000304223
0.0282939
-0.000322573
0.028635
-0.000340954
0.0289945
-0.000359395
0.0293725
-0.000377859
0.029769
-0.000396391
0.0301841
-0.000414953
0.0306178
-0.00043358
0.0310702
-0.000452243
0.0315413
-0.000470975
0.0320312
-0.00048974
0.0325399
-0.000508569
0.0330675
-0.000527422
0.0336139
-0.000546331
0.0341793
-0.000565247
0.0347636
-0.000584198
0.0353669
-0.000603131
0.0359891
-0.000622068
0.0366302
-0.000640948
0.0372902
-0.000659791
0.0379689
-0.000678528
0.0386662
-0.000697173
0.0393821
-0.00071565
0.0401162
-0.000733967
0.0408684
-0.00075204
0.0416385
-0.000769873
0.042426
-0.000787371
0.0432308
-0.000804532
0.0440522
-0.000821256
0.04489
-0.000837534
0.0457435
-0.000853257
0.0466121
-0.000868412
0.0474952
-0.000882882
0.0483921
-0.00089665
0.0493019
-0.000909594
0.0502238
-0.000921692
0.0511569
-0.000932818
0.0521001
-0.00094295
0.0530523
-0.000951958
0.0540124
-0.00095982
0.0549791
-0.000966407
0.055951
-0.000971697
0.0569269
-0.000975567
0.0579052
-0.000978001
0.0588843
-0.000978878
0.0598628
-0.00097819
0.060839
-0.000975826
0.0618111
-0.000971788
0.0627774
-0.000965978
0.0637362
-0.000958409
0.0646856
-0.000948999
-0.000937775
0.0656237
0.0510013
0.000309114
0.0518827
0.000999765
0.0525299
0.00137965
0.0529405
0.00162465
0.0531192
0.0017971
0.0530839
0.00189474
0.0528663
0.00192424
0.0525016
0.00190406
0.052024
0.00185062
0.0514648
0.00177493
0.050851
0.00168446
0.050205
0.00158559
0.0495451
0.00148312
0.0488855
0.00138051
0.0482369
0.00128009
0.0476074
0.00118295
0.0470029
0.00108978
0.0464278
0.00100094
0.0458848
0.000916453
0.0453758
0.00083617
0.0449019
0.000759839
0.0444636
0.000687172
0.0440609
0.000617848
0.0436936
0.000551568
0.0433613
0.000488032
0.0430632
0.000426989
0.0427988
0.000368197
0.0425672
0.000311462
0.0423677
0.000256616
0.0421996
0.00020353
0.0420624
0.000152062
0.0419567
0.00010198
0.0418823
5.31073e-05
0.0418389
5.31645e-06
0.0418256
-4.16141e-05
0.0418415
-8.78388e-05
0.0418857
-0.000133388
0.0419577
-0.000178309
0.0420565
-0.000222772
0.0421818
-0.000266796
0.042333
-0.00031046
0.0425097
-0.000353776
0.0427115
-0.000396803
0.042938
-0.000439556
0.0431889
-0.000482103
0.0434641
-0.000524437
0.0437631
-0.000566599
0.044086
-0.000608625
0.0444324
-0.000650545
0.0448023
-0.000692362
0.0451956
-0.000734123
0.0456122
-0.000775826
0.046052
-0.000817501
0.0465149
-0.000859159
0.0470009
-0.000900831
0.0475099
-0.000942496
0.048042
-0.000984194
0.0485971
-0.0010259
0.0491751
-0.00106765
0.0497761
-0.0011094
0.0503999
-0.00115119
0.0510467
-0.00119296
0.0517163
-0.00123473
0.0524088
-0.00127645
0.0531239
-0.00131812
0.0538617
-0.00135969
0.054622
-0.00140113
0.0554048
-0.00144239
0.0562098
-0.00148343
0.057037
-0.00152416
0.057886
-0.00156457
0.0587568
-0.00160454
0.0596489
-0.00164403
0.0605622
-0.00168292
0.0614961
-0.00172115
0.0624504
-0.0017586
0.0634245
-0.0017952
0.064418
-0.00183079
0.0654303
-0.00186529
0.0664606
-0.00189855
0.0675084
-0.00193048
0.0685729
-0.00196089
0.0696532
-0.0019897
0.0707485
-0.00201671
0.0718577
-0.00204182
0.0729799
-0.00206484
0.0741138
-0.00208567
0.0752584
-0.0021041
0.0764122
-0.00212004
0.0775741
-0.0021333
0.0787425
-0.00214376
0.0799161
-0.00215125
0.0810932
-0.00215569
0.0822722
-0.00215689
0.0834514
-0.00215478
0.0846292
-0.00214922
0.0858037
-0.00214016
0.0869731
-0.00212747
0.0881356
-0.00211112
-0.00209101
0.0892892
0.050103
0.000206319
0.0504379
0.000665423
0.0508501
0.000968037
0.0513076
0.00116775
0.0517834
0.00132185
0.0522415
0.00143714
0.0526555
0.00151069
0.0530118
0.00154818
0.0533048
0.00155794
0.053534
0.00154611
0.0537017
0.00151709
0.0538128
0.00147476
0.0538736
0.00142257
0.053891
0.00136337
0.0538719
0.00129938
0.053823
0.00123213
0.0537502
0.00116277
0.0536591
0.00109215
0.0535549
0.00102088
0.0534419
0.000949353
0.053324
0.000877838
0.0532049
0.000806505
0.0530874
0.000735463
0.0529744
0.000664779
0.0528681
0.000594492
0.0527706
0.000524632
0.0526837
0.00045522
0.052609
0.000386266
0.052548
0.000317801
0.0525018
0.000249832
0.0524717
0.00018235
0.0524585
0.000115285
0.0524631
4.86702e-05
0.0524859
-1.734e-05
0.0525273
-8.28367e-05
0.0525877
-0.000148124
0.0526678
-0.00021331
0.052768
-0.000278433
0.0528889
-0.000343489
0.0530306
-0.000408461
0.0531937
-0.000473373
0.0533783
-0.000538229
0.0535846
-0.000603029
0.0538129
-0.000667771
0.0540634
-0.000732457
0.0543362
-0.000797087
0.0546313
-0.000861656
0.054949
-0.000926195
0.0552893
-0.000990705
0.0556522
-0.0010552
0.0560379
-0.00111968
0.0564464
-0.00118417
0.0568777
-0.00124867
0.0573318
-0.0013132
0.0578088
-0.00137776
0.0583088
-0.00144235
0.0588317
-0.00150698
0.0593775
-0.00157164
0.0599464
-0.00163634
0.0605381
-0.00170105
0.0611528
-0.00176577
0.0617905
-0.00183048
0.062451
-0.00189513
0.0631344
-0.00195972
0.0638406
-0.00202419
0.0645695
-0.00208849
0.0653211
-0.00215258
0.0660952
-0.00221638
0.0668918
-0.00227983
0.0677106
-0.00234286
0.0685515
-0.00240535
0.0694144
-0.00246723
0.0702989
-0.00252838
0.0712048
-0.00258869
0.0721319
-0.00264802
0.0730797
-0.00270624
0.0740479
-0.00276321
0.075036
-0.00281878
0.0760437
-0.00287277
0.0770704
-0.00292501
0.0781154
-0.00297532
0.0791782
-0.00302352
0.0802581
-0.0030694
0.0813544
-0.00311276
0.0824662
-0.00315339
0.0835926
-0.00319109
0.0847328
-0.00322564
0.0858858
-0.00325682
0.0870504
-0.00328441
0.0882255
-0.00330822
0.08941
-0.00332802
0.0906027
-0.00334362
0.091802
-0.00335481
0.0930068
-0.00336142
0.0942156
-0.00336326
0.0954269
-0.0033602
0.0966391
-0.00335207
0.0978507
-0.00333876
0.0990601
-0.00332015
-0.00329617
0.100266
0.0500462
0.000160297
0.050232
0.000480244
0.0504646
0.000735985
0.0507128
0.000920127
0.0509775
0.00105763
0.0512556
0.00115961
0.0515396
0.00122708
0.0518243
0.00126393
0.0521057
0.00127691
0.0523803
0.0012718
0.0526452
0.00125255
0.052898
0.00122221
0.0531375
0.00118333
0.0533631
0.00113802
0.0535749
0.00108785
0.0537732
0.00103395
0.053959
0.000977156
0.0541333
0.000918072
0.0542972
0.000857138
0.0544521
0.000794663
0.0545992
0.000730857
0.05474
0.000665874
0.0548758
0.000599822
0.0550079
0.000532785
0.0551377
0.000464831
0.0552665
0.000396021
0.0553954
0.000326412
0.0555258
0.000256058
0.0556587
0.000185014
0.0557953
0.000113351
0.0559366
4.12046e-05
0.0560833
-3.12803e-05
0.0562363
-0.000104158
0.0563967
-0.00017762
0.0565657
-0.000251726
0.0567441
-0.000326442
0.0569327
-0.00040176
0.0571321
-0.000477679
0.0573429
-0.000554183
0.0575658
-0.000631239
0.0578014
-0.000708841
0.0580502
-0.000786965
0.0583129
-0.000865593
0.0585899
-0.000944691
0.0588818
-0.00102424
0.0591891
-0.00110422
0.0595121
-0.0011846
0.0598514
-0.00126537
0.0602073
-0.00134652
0.0605802
-0.00142803
0.0609706
-0.00150989
0.0613786
-0.0015921
0.0618047
-0.00167464
0.0622491
-0.0017575
0.0627121
-0.00184067
0.063194
-0.00192414
0.063695
-0.00200789
0.0642154
-0.0020919
0.0647553
-0.00217616
0.065315
-0.00226063
0.0658946
-0.00234529
0.0664943
-0.00243009
0.0671143
-0.00251501
0.0677547
-0.00259997
0.0684156
-0.00268494
0.069097
-0.00276984
0.0697992
-0.00285461
0.0705221
-0.00293915
0.0712658
-0.00302337
0.0720302
-0.00310718
0.0728155
-0.00319045
0.0736214
-0.00327307
0.0744481
-0.00335489
0.0752953
-0.00343576
0.076163
-0.00351553
0.077051
-0.00359402
0.0779589
-0.00367104
0.0788867
-0.0037464
0.079834
-0.00381989
0.0808005
-0.00389127
0.0817857
-0.00396033
0.0827892
-0.0040268
0.0838104
-0.00409045
0.0848488
-0.00415099
0.0859038
-0.00420818
0.0869747
-0.00426172
0.0880606
-0.00431133
0.0891607
-0.00435673
0.0902742
-0.00439765
0.0914
-0.00443378
0.0925371
-0.00446487
0.0936843
-0.00449063
0.0948406
-0.00451081
0.0960046
-0.00452515
0.097175
-0.00453341
0.0983505
-0.00453539
0.0995296
-0.00453089
0.100711
-0.00451973
0.101893
-0.00450177
-0.00447686
0.103074
0.0500396
0.000120894
0.0501596
0.000360838
0.0503255
0.000570701
0.050512
0.000734112
0.0507132
0.000857014
0.0509251
0.0009481
0.0511422
0.0010105
0.0513598
0.00104672
0.0515759
0.00106112
0.0517899
0.00105821
0.0520012
0.0010415
0.05221
0.00101373
0.0524163
0.000977231
0.0526206
0.000933952
0.0528232
0.000885438
0.0530246
0.000832843
0.0532249
0.00077702
0.0534245
0.000718596
0.0536238
0.000658029
0.053823
0.000595639
0.0540223
0.000531643
0.0542222
0.000466188
0.0544228
0.000399371
0.0546245
0.000331259
0.0548275
0.000261899
0.0550324
0.000191326
0.0552394
0.000119575
0.0554489
4.66867e-05
0.0556613
-2.72798e-05
0.0558771
-0.000102297
0.0560968
-0.000178396
0.0563213
-0.000255622
0.0565512
-0.000333961
0.0567871
-0.000413381
0.0570294
-0.00049388
0.0572785
-0.00057546
0.057535
-0.000658119
0.0577993
-0.000741853
0.0580719
-0.000826646
0.0583532
-0.000912473
0.0586438
-0.000999312
0.0589441
-0.00108714
0.0592546
-0.00117594
0.0595757
-0.00126567
0.0599078
-0.00135632
0.0602516
-0.00144786
0.0606074
-0.00154026
0.0609756
-0.0016335
0.0613567
-0.00172757
0.0617513
-0.00182244
0.0621596
-0.0019181
0.0625821
-0.00201452
0.0630192
-0.00211169
0.0634714
-0.00220959
0.0639391
-0.0023082
0.0644225
-0.00240749
0.0649222
-0.00250744
0.0654384
-0.00260803
0.0659716
-0.00270921
0.066522
-0.00281096
0.06709
-0.00291322
0.067676
-0.00301595
0.0682802
-0.00311909
0.0689029
-0.00322258
0.0695444
-0.00332634
0.070205
-0.00343029
0.0708848
-0.00353434
0.0715842
-0.00363839
0.0723033
-0.00374231
0.0730422
-0.00384599
0.0738012
-0.00394927
0.0745802
-0.00405201
0.0753795
-0.00415403
0.0761991
-0.00425515
0.0770389
-0.00435517
0.0778989
-0.00445387
0.078779
-0.00455103
0.0796792
-0.00464639
0.0805992
-0.00473969
0.0815387
-0.00483066
0.0824976
-0.004919
0.0834754
-0.0050044
0.0844717
-0.00508655
0.085486
-0.00516511
0.0865177
-0.00523974
0.0875663
-0.00531008
0.088631
-0.00537579
0.0897109
-0.0054365
0.0908054
-0.00549185
0.0919133
-0.00554147
0.0930337
-0.00558503
0.0941654
-0.00562217
0.0953074
-0.00565254
0.0964584
-0.00567582
0.0976169
-0.0056917
0.0987817
-0.00569992
0.0999514
-0.00570022
0.101124
-0.00569237
0.102299
-0.00567617
-0.00565144
0.103474
0.0500283
9.28077e-05
0.0501121
0.000277615
0.0502387
0.000444636
0.0503919
0.000581462
0.050562
0.000687401
0.0507436
0.000766987
0.0509316
0.000822973
0.0511217
0.000856994
0.0513116
0.000871605
0.0515002
0.000869975
0.051687
0.000854958
0.0518721
0.000828894
0.0520558
0.000793791
0.0522386
0.000751392
0.0524211
0.000703138
0.052604
0.000650168
0.0527878
0.000593359
0.0529732
0.000533389
0.0531606
0.000470771
0.0533505
0.000405883
0.0535433
0.000339001
0.0537393
0.000270321
0.0539389
0.000199981
0.0541422
0.000128078
0.0543496
5.46778e-05
0.0545612
-2.01756e-05
0.0547774
-9.64456e-05
0.0549983
-0.000174106
0.0552243
-0.000253148
0.0554557
-0.000333557
0.0556928
-0.000415329
0.0559357
-0.000498474
0.0561849
-0.000583001
0.0564406
-0.000668916
0.056703
-0.000756225
0.0569726
-0.000844934
0.0572497
-0.000935043
0.0575345
-0.00102655
0.0578274
-0.00111944
0.0581287
-0.0012137
0.0584389
-0.00130933
0.0587581
-0.0014063
0.0590869
-0.0015046
0.0594256
-0.00160423
0.0597745
-0.00170515
0.0601341
-0.00180736
0.0605048
-0.00191083
0.0608869
-0.00201555
0.061281
-0.0021215
0.0616873
-0.00222867
0.0621063
-0.00233704
0.0625385
-0.0024466
0.0629843
-0.00255732
0.0634439
-0.00266918
0.063918
-0.00278217
0.0644069
-0.00289626
0.064911
-0.00301142
0.0654306
-0.00312761
0.0659663
-0.0032448
0.0665184
-0.00336295
0.0670873
-0.003482
0.0676734
-0.00360189
0.0682769
-0.00372257
0.0688984
-0.00384394
0.0695381
-0.00396593
0.0701964
-0.00408843
0.0708735
-0.00421134
0.0715698
-0.00433453
0.0722855
-0.00445787
0.0730208
-0.00458119
0.073776
-0.00470433
0.0745512
-0.00482711
0.0753467
-0.00494932
0.0761624
-0.00507073
0.0769985
-0.00519112
0.077855
-0.00531021
0.0787318
-0.00542772
0.079629
-0.00554337
0.0805463
-0.00565683
0.0814835
-0.00576776
0.0824405
-0.00587581
0.0834169
-0.0059806
0.0844123
-0.00608175
0.0854262
-0.00617884
0.0864581
-0.00627146
0.0875074
-0.00635919
0.0885734
-0.00644157
0.0896553
-0.00651818
0.0907522
-0.00658856
0.0918632
-0.00665228
0.0929873
-0.00670891
0.0941234
-0.00675799
0.0952702
-0.00679909
0.0964265
-0.00683183
0.0975909
-0.00685585
0.098762
-0.00687079
0.0999384
-0.00687632
0.101119
-0.00687217
0.102301
-0.00685806
-0.0068338
0.103484
0.0500212
7.1783e-05
0.0500852
0.000214221
0.0501851
0.000345334
0.0503107
0.000456401
0.0504539
0.000544707
0.0506097
0.000611627
0.0507743
0.000658822
0.0509442
0.000687488
0.0511168
0.000699266
0.0512908
0.00069635
0.0514651
0.000680937
0.0516393
0.00065494
0.0518133
0.000620018
0.0519873
0.000577638
0.0521616
0.000529056
0.0523366
0.000475307
0.052513
0.000417222
0.052691
0.000355465
0.0528714
0.000290556
0.0530546
0.0002229
0.0532409
0.000152805
0.0534309
8.0503e-05
0.0536248
6.16526e-06
0.0538232
-7.00804e-05
0.0540261
-0.000148138
0.054234
-0.000227937
0.0544471
-0.000309427
0.0546657
-0.00039258
0.0548901
-0.000477375
0.0551205
-0.000563799
0.0553571
-0.000651846
0.0556003
-0.000741523
0.0558503
-0.00083284
0.0561073
-0.000925806
0.0563716
-0.00102043
0.0566435
-0.00111671
0.0569232
-0.00121465
0.0572111
-0.00131427
0.0575073
-0.00141555
0.0578122
-0.0015185
0.0581261
-0.00162313
0.0584494
-0.00172941
0.0587822
-0.00183736
0.0591251
-0.00194697
0.0594783
-0.00205822
0.0598421
-0.00217111
0.060217
-0.00228563
0.0606033
-0.00240178
0.0610015
-0.00251954
0.0614118
-0.00263891
0.0618347
-0.00275987
0.0622706
-0.00288242
0.06272
-0.00300653
0.0631831
-0.0031322
0.0636604
-0.0032594
0.0641524
-0.00338811
0.0646593
-0.00351831
0.0651818
-0.00364994
0.0657201
-0.00378299
0.0662746
-0.0039174
0.0668458
-0.00405311
0.0674341
-0.00419005
0.0680398
-0.00432816
0.0686633
-0.00446735
0.069305
-0.00460751
0.0699652
-0.00474854
0.0706443
-0.00489031
0.0713426
-0.00503267
0.0720603
-0.00517547
0.0727978
-0.00531853
0.0735552
-0.00546164
0.0743328
-0.0056046
0.0751308
-0.00574716
0.0759493
-0.00588908
0.0767883
-0.00603005
0.0776481
-0.00616979
0.0785285
-0.00630796
0.0794295
-0.00644421
0.080351
-0.00657816
0.0812928
-0.00670942
0.0822547
-0.00683757
0.0832364
-0.00696216
0.0842376
-0.00708273
0.0852577
-0.0071988
0.0862963
-0.00730987
0.0873528
-0.00741544
0.0884264
-0.00751496
0.0895163
-0.00760793
0.0906218
-0.00769382
0.0917418
-0.00777209
0.0928753
-0.00784221
0.0940213
-0.00790367
0.0951783
-0.00795591
0.0963452
-0.00799849
0.0975207
-0.008031
0.0987032
-0.008053
0.0998912
-0.00806405
0.101083
-0.00806377
0.102277
-0.00805191
-0.00802826
0.103472
0.0500169
5.50468e-05
0.0500679
0.000163861
0.0501485
0.000265238
0.0502527
0.00035272
0.0503746
0.000423275
0.05051
0.000476696
0.0506555
0.000513728
0.0508082
0.00053517
0.0509658
0.000542088
0.0511265
0.000535944
0.0512894
0.00051834
0.0514538
0.000490774
0.0516194
0.000454594
0.0517863
0.000411012
0.0519544
0.000361099
0.0521241
0.000305769
0.0522958
0.000245781
0.0524696
0.000181754
0.0526462
0.000114192
0.0528257
4.34964e-05
0.0530087
-3.00162e-05
0.0531954
-0.000106099
0.0533863
-0.000184561
0.0535816
-0.000265255
0.0537817
-0.000348074
0.0539869
-0.000432935
0.0541973
-0.00051978
0.0544135
-0.000608566
0.0546355
-0.000699266
0.0548637
-0.000791864
0.0550983
-0.000886353
0.0553397
-0.000982733
0.055588
-0.00108101
0.0558435
-0.0011812
0.0561065
-0.00128329
0.0563772
-0.00138732
0.0566559
-0.00149327
0.056943
-0.00160117
0.0572386
-0.00171103
0.057543
-0.00182285
0.0578566
-0.00193664
0.0581797
-0.0020524
0.0585126
-0.00217013
0.0588556
-0.00228986
0.0592091
-0.00241156
0.0595733
-0.00253525
0.0599487
-0.00266093
0.0603356
-0.0027886
0.0607344
-0.00291826
0.0611455
-0.0030499
0.0615693
-0.00318352
0.0620061
-0.00331913
0.0624564
-0.0034567
0.0629205
-0.00359623
0.0633989
-0.00373769
0.0638919
-0.00388108
0.0644001
-0.00402636
0.0649237
-0.0041735
0.0654633
-0.00432246
0.0660192
-0.00447319
0.0665918
-0.00462563
0.0671816
-0.00477971
0.0677889
-0.00493535
0.0684141
-0.00509245
0.0690576
-0.0052509
0.0697197
-0.00541058
0.0704009
-0.00557135
0.0711014
-0.00573305
0.0718215
-0.00589549
0.0725616
-0.00605847
0.0733218
-0.00622178
0.0741025
-0.00638516
0.0749038
-0.00654834
0.0757259
-0.00671103
0.0765689
-0.00687291
0.0774329
-0.00703362
0.0783178
-0.0071928
0.0792238
-0.00735002
0.0801507
-0.00750487
0.0810983
-0.00765688
0.0820664
-0.00780556
0.0830548
-0.0079504
0.0840631
-0.00809087
0.0850909
-0.0082264
0.0861376
-0.00835642
0.0872027
-0.00848033
0.0882854
-0.00859751
0.0893851
-0.00870737
0.0905007
-0.00880927
0.0916314
-0.00890259
0.0927761
-0.00898668
0.0939336
-0.00906096
0.0951028
-0.00912481
0.0962822
-0.00917767
0.0974705
-0.00921903
0.0986662
-0.0092484
0.0998677
-0.00926525
0.101073
-0.00926915
0.102282
-0.00925979
-0.00923689
0.103491
0.0500139
4.1324e-05
0.0500558
0.00012258
0.0501227
0.000198827
0.0502109
0.000265045
0.0503162
0.000318485
0.050435
0.000358301
0.0505646
0.000384596
0.0507023
0.000397766
0.0508463
0.000398454
0.0509949
0.000387608
0.0511472
0.000366359
0.0513024
0.000335851
0.05146
0.000297156
0.05162
0.000251263
0.0517822
0.000199069
0.0519468
0.000141359
0.0521139
7.88054e-05
0.0522839
1.1971e-05
0.0524569
-5.86763e-05
0.0526333
-0.000132754
0.0528134
-0.000209954
0.0529975
-0.000290028
0.0531858
-0.000372784
0.0533788
-0.000458069
0.0535766
-0.000545767
0.0537796
-0.00063579
0.0539881
-0.000728072
0.0542022
-0.000822566
0.0544223
-0.000919242
0.0546487
-0.00101808
0.0548815
-0.00111907
0.0551211
-0.00122221
0.0553677
-0.00132751
0.0556217
-0.00143498
0.0558831
-0.00154462
0.0561524
-0.00165646
0.0564297
-0.00177051
0.0567154
-0.00188678
0.0570098
-0.00200528
0.0573131
-0.00212605
0.0576257
-0.00224907
0.0579478
-0.00237439
0.0582797
-0.00250199
0.0586219
-0.00263191
0.0589746
-0.00276415
0.0593382
-0.00289872
0.059713
-0.00303563
0.0600994
-0.0031749
0.0604977
-0.00331652
0.0609084
-0.00346052
0.0613319
-0.00360688
0.0617685
-0.00375561
0.0622186
-0.00390671
0.0626826
-0.00406017
0.063161
-0.00421598
0.0636541
-0.00437413
0.0641625
-0.00453458
0.0646864
-0.00469732
0.0652263
-0.00486228
0.0657826
-0.00502944
0.0663558
-0.00519872
0.0669462
-0.00537005
0.0675543
-0.00554334
0.0681805
-0.0057185
0.0688251
-0.0058954
0.0694885
-0.00607391
0.0701711
-0.00625387
0.0708733
-0.0064351
0.0715953
-0.00661741
0.0723375
-0.00680056
0.0731002
-0.00698433
0.0738836
-0.00716842
0.0746879
-0.00735253
0.0755133
-0.00753634
0.07636
-0.00771948
0.0772281
-0.00790155
0.0781176
-0.00808214
0.0790285
-0.00826078
0.0799607
-0.00843698
0.0809142
-0.00861022
0.0818888
-0.00877995
0.0828841
-0.00894557
0.0838999
-0.00910649
0.0849357
-0.00926205
0.085991
-0.00941159
0.0870653
-0.00955443
0.0881578
-0.00968988
0.0892679
-0.00981723
0.0903945
-0.00993574
0.0915368
-0.0100447
0.0926937
-0.0101433
0.093864
-0.010231
0.0950464
-0.010307
0.0962396
-0.0103706
0.0974421
-0.0104213
0.0986524
-0.0104584
0.0998689
-0.0104814
0.10109
-0.0104899
0.102314
-0.0104832
-0.0104612
0.103538
0.0500117
2.97586e-05
0.0500471
8.78105e-05
0.050104
0.00014244
0.0501799
0.000189613
0.0502719
0.000226975
0.0503772
0.00025347
0.0504933
0.000268808
0.0506184
0.00027307
0.0507506
0.000266593
0.0508885
0.000249972
0.0510311
0.000223985
0.0511778
0.000189475
0.0513279
0.000147273
0.0514811
9.81683e-05
0.0516375
4.28941e-05
0.0517969
-1.78892e-05
0.0519595
-8.36013e-05
0.0521254
-0.000153745
0.0522948
-0.000227897
0.0524679
-0.000305705
0.0526449
-0.000386881
0.0528262
-0.000471188
0.053012
-0.000558436
0.0532026
-0.000648475
0.0533981
-0.000741188
0.053599
-0.000836485
0.0538053
-0.000934298
0.0540175
-0.00103458
0.0542357
-0.0011373
0.0544602
-0.00124244
0.0546912
-0.00134998
0.0549291
-0.00145993
0.055174
-0.0015723
0.0554262
-0.00168709
0.055686
-0.00180432
0.0559537
-0.00192402
0.0562295
-0.00204619
0.0565137
-0.00217086
0.0568066
-0.00229806
0.0571085
-0.00242781
0.0574197
-0.00256013
0.0577404
-0.00269504
0.0580711
-0.00283256
0.058412
-0.00297272
0.0587635
-0.00311554
0.0591259
-0.00326104
0.0594996
-0.00340923
0.059885
-0.00356015
0.0602823
-0.00371379
0.0606921
-0.00387019
0.0611146
-0.00402934
0.0615504
-0.00419126
0.0619997
-0.00435595
0.062463
-0.0045234
0.0629408
-0.00469363
0.0634333
-0.0048666
0.0639411
-0.00504231
0.0644646
-0.00522072
0.0650042
-0.00540179
0.0655604
-0.00558547
0.0661335
-0.00577171
0.0667239
-0.00596042
0.0673322
-0.00615151
0.0679587
-0.00634488
0.0686038
-0.0065404
0.0692679
-0.00673792
0.0699514
-0.00693728
0.0706547
-0.00713827
0.071378
-0.0073407
0.0721219
-0.0075443
0.0728865
-0.00774882
0.0736721
-0.00795394
0.0744791
-0.00815934
0.0753075
-0.00836464
0.0761576
-0.00856945
0.0770295
-0.00877332
0.0779232
-0.00897579
0.0788389
-0.00917634
0.0797765
-0.00937442
0.0807359
-0.00956944
0.0817168
-0.0097608
0.0827192
-0.00994782
0.0837427
-0.0101298
0.0847869
-0.0103061
0.0858512
-0.0104758
0.0869352
-0.0106383
0.0880382
-0.0107927
0.0891594
-0.0109382
0.0902978
-0.011074
0.0914526
-0.0111993
0.0926226
-0.0113132
0.0938067
-0.0114149
0.0950036
-0.0115036
0.0962119
-0.0115786
0.09743
-0.0116392
0.0986564
-0.0116845
0.0998894
-0.0117141
0.101127
-0.0117274
0.102368
-0.0117239
-0.0117031
0.10361
0.0500101
1.98228e-05
0.0500406
5.78712e-05
0.0500899
9.36244e-05
0.0501563
0.000123699
0.0502377
0.000146098
0.0503318
0.000159747
0.0504368
0.00016416
0.050551
0.000159201
0.050673
0.000144988
0.0508013
0.000121866
0.0509352
9.03434e-05
0.0510739
5.10205e-05
0.0512169
4.5218e-06
0.0513638
-4.85362e-05
0.0515144
-0.000107566
0.0516687
-0.000172025
0.0518267
-0.000241421
0.0519884
-0.000315328
0.0521541
-0.000393373
0.0523238
-0.000475242
0.0524977
-0.00056067
0.0526761
-0.000649438
0.0528592
-0.000741369
0.0530472
-0.00083632
0.0532403
-0.000934179
0.0534388
-0.00103486
0.0536429
-0.0011383
0.0538529
-0.00124444
0.0540691
-0.00135327
0.0542915
-0.00146476
0.0545206
-0.0015789
0.0547565
-0.0016957
0.0549994
-0.00181516
0.0552498
-0.00193731
0.0555078
-0.00206216
0.0557736
-0.00218974
0.0560476
-0.00232007
0.05633
-0.00245318
0.0566212
-0.00258909
0.0569213
-0.00272785
0.0572308
-0.00286948
0.0575499
-0.00301402
0.0578789
-0.00316148
0.0582182
-0.00331192
0.0585681
-0.00346535
0.058929
-0.0036218
0.0593012
-0.00378131
0.059685
-0.0039439
0.0600809
-0.0041096
0.0604893
-0.00427844
0.0609105
-0.00445042
0.0613449
-0.00462556
0.0617929
-0.00480389
0.062255
-0.0049854
0.0627315
-0.00517009
0.063223
-0.00535796
0.0637297
-0.00554899
0.0642522
-0.00574315
0.064791
-0.00594042
0.0653463
-0.00614073
0.0659187
-0.00634404
0.0665087
-0.00655025
0.0671165
-0.00675929
0.0677428
-0.00697103
0.0683878
-0.00718535
0.0690521
-0.00740208
0.0697359
-0.00762105
0.0704398
-0.00784206
0.0711641
-0.00806487
0.0719091
-0.00828922
0.0726752
-0.00851481
0.0734627
-0.00874132
0.0742719
-0.00896839
0.075103
-0.0091956
0.0759562
-0.00942253
0.0768316
-0.00964869
0.0777295
-0.00987356
0.0786499
-0.0100966
0.0795927
-0.0103171
0.080558
-0.0105346
0.0815455
-0.0107482
0.0825552
-0.0109573
0.0835866
-0.0111611
0.0846395
-0.0113588
0.0857133
-0.0115495
0.0868076
-0.0117324
0.0879216
-0.0119065
0.0890546
-0.012071
0.0902057
-0.0122249
0.0913739
-0.0123673
0.0925582
-0.0124972
0.0937573
-0.0126138
0.0949699
-0.012716
0.0961946
-0.012803
0.0974297
-0.0128741
0.0986738
-0.0129283
0.0999251
-0.0129651
0.101182
-0.0129837
0.102442
-0.0129836
-0.0129643
0.103703
0.0500089
1.11034e-05
0.0500357
3.16342e-05
0.0500791
5.06693e-05
0.050138
6.52913e-05
0.0502107
7.38018e-05
0.0502957
7.51878e-05
0.0503913
6.88808e-05
0.0504962
5.46119e-05
0.0506092
3.23446e-05
0.0507291
2.23914e-06
0.0508551
-3.53918e-05
0.0509864
-8.01406e-05
0.0511227
-0.000131553
0.0512635
-0.00018916
0.0514086
-0.000252501
0.0515579
-0.000321141
0.0517113
-0.000394675
0.0518689
-0.000472742
0.0520307
-0.000555026
0.0521969
-0.00064125
0.0523675
-0.000731181
0.0525429
-0.000824624
0.052723
-0.000921417
0.0529083
-0.00102143
0.0530988
-0.00112456
0.0532948
-0.00123073
0.0534965
-0.00133987
0.0537042
-0.00145195
0.053918
-0.00156694
0.0541382
-0.00168483
0.0543651
-0.00180561
0.0545988
-0.00192929
0.0548396
-0.00205588
0.0550879
-0.00218541
0.0553437
-0.0023179
0.0556075
-0.00245338
0.0558794
-0.00259187
0.0561598
-0.00273343
0.0564489
-0.00287808
0.056747
-0.00302586
0.0570545
-0.00317682
0.0573715
-0.00333099
0.0576986
-0.00348841
0.0580359
-0.00364913
0.0583838
-0.00381319
0.0587427
-0.00398061
0.059113
-0.00415145
0.0594949
-0.00432575
0.0598889
-0.00450352
0.0602954
-0.00468481
0.0607147
-0.00486965
0.0611473
-0.00505805
0.0615936
-0.00525005
0.0620539
-0.00544565
0.0625288
-0.00564486
0.0630186
-0.00584767
0.0635238
-0.00605409
0.0640448
-0.00626409
0.0645821
-0.00647763
0.0651361
-0.00669468
0.0657074
-0.00691516
0.0662962
-0.00713902
0.0669031
-0.00736614
0.0675286
-0.00759642
0.0681731
-0.00782972
0.068837
-0.00806587
0.0695207
-0.0083047
0.0702247
-0.00854597
0.0709494
-0.00878946
0.0716952
-0.00903487
0.0724623
-0.00928189
0.0732513
-0.00953018
0.0740623
-0.00977933
0.0748958
-0.0100289
0.0757518
-0.0102785
0.0766307
-0.0105274
0.0775325
-0.0107753
0.0784574
-0.0110214
0.0794055
-0.0112651
0.0803767
-0.0115056
0.0813709
-0.0117423
0.0823879
-0.0119742
0.0834276
-0.0122006
0.0844895
-0.0124206
0.0855733
-0.0126331
0.0866784
-0.0128373
0.0878041
-0.0130321
0.0889498
-0.0132165
0.0901144
-0.0133894
0.0912972
-0.0135498
0.0924968
-0.0136967
0.0937122
-0.0138289
0.0949418
-0.0139454
0.0961844
-0.0140453
0.0974382
-0.0141277
0.0987016
-0.0141915
0.0999729
-0.014236
0.10125
-0.0142605
0.102531
-0.0142642
-0.0142468
0.103814
0.0500079
3.36948e-06
0.0500318
8.28719e-06
0.0500706
1.23356e-05
0.0501234
1.28971e-05
0.0501892
8.50936e-06
0.0502665
-1.75114e-06
0.0503542
-1.84704e-05
0.0504511
-4.19931e-05
0.0505562
-7.2461e-05
0.0506685
-0.000109844
0.0507873
-0.000153974
0.050912
-0.000204594
0.051042
-0.000261387
0.0511771
-0.00032401
0.0513169
-0.000392112
0.0514612
-0.000465351
0.0516101
-0.000543404
0.0517635
-0.000625974
0.0519214
-0.000712797
0.052084
-0.000803639
0.0522512
-0.0008983
0.0524234
-0.00099661
0.0526005
-0.00109843
0.0527829
-0.00120364
0.0529706
-0.00131215
0.0531639
-0.0014239
0.053363
-0.00153883
0.0535681
-0.00165691
0.0537794
-0.00177812
0.0539972
-0.00190244
0.0542216
-0.00202989
0.0544529
-0.00216048
0.0546914
-0.00229422
0.0549372
-0.00243114
0.0551907
-0.00257127
0.0554521
-0.00271466
0.0557217
-0.00286133
0.0559997
-0.00301133
0.0562865
-0.00316472
0.0565823
-0.00332153
0.0568874
-0.00348181
0.0572021
-0.00364562
0.0575268
-0.003813
0.0578618
-0.003984
0.0582074
-0.00415868
0.0585639
-0.00433708
0.0589318
-0.00451926
0.0593114
-0.00470525
0.0597031
-0.00489511
0.0601073
-0.00508887
0.0605243
-0.00528658
0.0609546
-0.00548826
0.0613986
-0.00569395
0.0618567
-0.00590367
0.0623294
-0.00611744
0.0628171
-0.00633525
0.0633202
-0.00655711
0.0638392
-0.00678301
0.0643745
-0.00701291
0.0649267
-0.00724678
0.0654962
-0.00748456
0.0660835
-0.00772618
0.066689
-0.00797154
0.0673132
-0.00822052
0.0679565
-0.008473
0.0686195
-0.00872879
0.0693026
-0.00898771
0.0700063
-0.00924953
0.0707309
-0.00951399
0.0714769
-0.00978081
0.0722448
-0.0100496
0.0730348
-0.0103201
0.0738474
-0.0105918
0.0746828
-0.0108643
0.0755414
-0.011137
0.0764234
-0.0114093
0.077329
-0.0116808
0.0782584
-0.0119506
0.0792116
-0.0122182
0.0801887
-0.0124826
0.0811897
-0.0127431
0.0822143
-0.0129988
0.0832625
-0.0132487
0.0843339
-0.0134918
0.085428
-0.0137272
0.0865445
-0.0139536
0.0876827
-0.0141701
0.0888418
-0.0143754
0.090021
-0.0145684
0.0912192
-0.0147479
0.0924354
-0.0149127
0.0936683
-0.0150616
0.0949165
-0.0151934
0.0961784
-0.0153071
0.0974526
-0.0154015
0.0987371
-0.0154757
0.10003
-0.0155287
0.10133
-0.0155597
0.102634
-0.0155678
-0.0155526
0.10394
0.0500071
-3.61262e-06
0.0500287
-1.27409e-05
0.0500637
-2.22748e-05
0.0501117
-3.46036e-05
0.0501716
-5.10002e-05
0.0502425
-7.22978e-05
0.0503234
-9.90687e-05
0.0504134
-0.000131694
0.0505116
-0.000170383
0.0506172
-0.000215197
0.0507296
-0.000266079
0.0508481
-0.000322881
0.0509723
-0.0003854
0.0511018
-0.000453396
0.0512365
-0.000526612
0.0513761
-0.000604789
0.0515205
-0.000687675
0.0516697
-0.000775035
0.0518237
-0.000866654
0.0519826
-0.00096234
0.0521464
-0.00106193
0.0523152
-0.00116527
0.0524892
-0.00127226
0.0526685
-0.00138279
0.0528532
-0.00149679
0.0530437
-0.00161421
0.05324
-0.00173499
0.0534423
-0.00185912
0.0536509
-0.00198658
0.053866
-0.00211738
0.0540878
-0.00225152
0.0543165
-0.00238903
0.0545523