/*--------------------------------*- C++ -*----------------------------------*\
| =========                 |                                                 |
| \\      /  F ield         | OpenFOAM: The Open Source CFD Toolbox           |
|  \\    /   O peration     | Version:  2406                                  |
|   \\  /    A nd           | Website:  www.openfoam.com                      |
|    \\/     M anipulation  |                                                 |
\*---------------------------------------------------------------------------*/
FoamFile
{
    version     2.0;
    format      ascii;
    arch        "LSB;label=32;scalar=64";
    class       volVectorField;
    location    "2000";
    object      U;
}
// * * * * * * * * * * * * * * * * * * * * * * * * * * * * * * * * * * * * * //

dimensions      [0 1 -1 0 0 0 0];

internalField   nonuniform List<vector> 
190000
(
(4.90511 0.0576301 0)
(4.76048 0.141319 0)
(4.5897 0.180287 0)
(4.38408 0.191042 0)
(4.17437 0.186091 0)
(3.97956 0.171246 0)
(3.80202 0.150644 0)
(3.64045 0.127736 0)
(3.49487 0.105172 0)
(3.36553 0.0847298 0)
(3.2516 0.066798 0)
(3.15155 0.051574 0)
(3.06386 0.0390964 0)
(2.98699 0.0290972 0)
(2.9197 0.0212174 0)
(2.86077 0.0150981 0)
(2.80911 0.0104086 0)
(2.76378 0.00685308 0)
(2.72401 0.00417666 0)
(2.68915 0.00216826 0)
(2.65864 0.000659368 0)
(2.63203 -0.000483607 0)
(2.60894 -0.00136381 0)
(2.58907 -0.00206088 0)
(2.57216 -0.00263417 0)
(2.558 -0.00312821 0)
(2.54644 -0.00357451 0)
(2.53732 -0.00399563 0)
(2.53053 -0.00440394 0)
(2.52597 -0.00480292 0)
(2.52352 -0.00518037 0)
(2.52309 -0.00549753 0)
(2.52436 -0.00574517 0)
(2.52734 -0.00594799 0)
(2.53202 -0.00614599 0)
(2.53841 -0.00644912 0)
(2.54649 -0.00679202 0)
(2.55629 -0.00715208 0)
(2.56783 -0.00759011 0)
(2.58113 -0.00806752 0)
(2.59619 -0.00858732 0)
(2.61304 -0.00914388 0)
(2.63167 -0.00973149 0)
(2.6521 -0.0103452 0)
(2.67434 -0.0109803 0)
(2.69838 -0.0116367 0)
(2.72426 -0.0123112 0)
(2.75195 -0.0130008 0)
(2.78147 -0.0137014 0)
(2.81282 -0.014412 0)
(2.84601 -0.0151303 0)
(2.88104 -0.0158569 0)
(2.91791 -0.0165899 0)
(2.95664 -0.0173291 0)
(2.99721 -0.0180723 0)
(3.03965 -0.018821 0)
(3.08395 -0.019574 0)
(3.13013 -0.0203324 0)
(3.17817 -0.0210947 0)
(3.2281 -0.0218618 0)
(3.27991 -0.022632 0)
(3.33361 -0.0234064 0)
(3.3892 -0.0241829 0)
(3.44669 -0.0249625 0)
(3.50607 -0.0257428 0)
(3.56735 -0.0265246 0)
(3.63051 -0.0273051 0)
(3.69557 -0.0280851 0)
(3.7625 -0.0288614 0)
(3.8313 -0.0296344 0)
(3.90196 -0.0304006 0)
(3.97447 -0.0311603 0)
(4.04879 -0.0319095 0)
(4.12491 -0.0326482 0)
(4.2028 -0.033372 0)
(4.28242 -0.0340806 0)
(4.36374 -0.0347693 0)
(4.44671 -0.0354374 0)
(4.53128 -0.03608 0)
(4.6174 -0.0366959 0)
(4.705 -0.03728 0)
(4.79402 -0.0378309 0)
(4.88437 -0.0383432 0)
(4.97598 -0.0388154 0)
(5.06875 -0.0392418 0)
(5.16259 -0.0396209 0)
(5.25739 -0.039947 0)
(5.35303 -0.0402184 0)
(5.4494 -0.0404296 0)
(5.54636 -0.0405791 0)
(5.64378 -0.0406614 0)
(5.74152 -0.0406754 0)
(5.83943 -0.040616 0)
(5.93735 -0.0404826 0)
(6.03513 -0.0402704 0)
(6.13258 -0.0399793 0)
(6.22954 -0.0396054 0)
(6.32584 -0.0391493 0)
(6.42129 -0.0386076 0)
(6.51572 -0.0379817 0)
(5.03748 0.0734188 0)
(5.14147 0.161823 0)
(5.22891 0.197835 0)
(5.28261 0.211112 0)
(5.30875 0.215893 0)
(5.3142 0.214546 0)
(5.30127 0.207944 0)
(5.27172 0.197874 0)
(5.2288 0.185943 0)
(5.17615 0.173081 0)
(5.11686 0.159873 0)
(5.05339 0.146771 0)
(4.9877 0.134063 0)
(4.92143 0.121965 0)
(4.85578 0.11062 0)
(4.79169 0.10004 0)
(4.72986 0.0902241 0)
(4.67079 0.0811574 0)
(4.61482 0.0727968 0)
(4.56218 0.0650864 0)
(4.51302 0.0579666 0)
(4.4674 0.0513771 0)
(4.42535 0.0452599 0)
(4.38686 0.0395603 0)
(4.35189 0.0342291 0)
(4.32038 0.0292215 0)
(4.29228 0.0244995 0)
(4.2675 0.0200297 0)
(4.24596 0.0157861 0)
(4.2276 0.0117491 0)
(4.21235 0.00791147 0)
(4.20017 0.00427414 0)
(4.19117 0.000815028 0)
(4.18531 -0.00251713 0)
(4.18249 -0.00576435 0)
(4.18264 -0.00894836 0)
(4.18567 -0.0120889 0)
(4.1915 -0.0151918 0)
(4.20005 -0.0182601 0)
(4.21127 -0.0213019 0)
(4.22511 -0.0243207 0)
(4.24152 -0.0273186 0)
(4.26045 -0.0302993 0)
(4.28187 -0.0332653 0)
(4.30575 -0.0362215 0)
(4.33206 -0.0391646 0)
(4.36078 -0.0420961 0)
(4.39188 -0.0450255 0)
(4.42534 -0.0479515 0)
(4.46117 -0.050875 0)
(4.49933 -0.053798 0)
(4.53982 -0.0567214 0)
(4.58264 -0.0596449 0)
(4.62778 -0.0625736 0)
(4.67522 -0.0655065 0)
(4.72498 -0.0684425 0)
(4.77703 -0.0713829 0)
(4.83139 -0.0743286 0)
(4.88805 -0.0772792 0)
(4.947 -0.0802346 0)
(5.00824 -0.0831939 0)
(5.07178 -0.0861562 0)
(5.1376 -0.0891202 0)
(5.2057 -0.0920841 0)
(5.27608 -0.0950459 0)
(5.34872 -0.098003 0)
(5.42363 -0.100952 0)
(5.50079 -0.103891 0)
(5.58018 -0.106814 0)
(5.6618 -0.109718 0)
(5.74562 -0.112597 0)
(5.83161 -0.115447 0)
(5.91976 -0.118261 0)
(6.01004 -0.121033 0)
(6.10241 -0.123756 0)
(6.19683 -0.126423 0)
(6.29326 -0.129025 0)
(6.39165 -0.131554 0)
(6.49195 -0.134 0)
(6.5941 -0.136355 0)
(6.69802 -0.138609 0)
(6.80366 -0.140751 0)
(6.91092 -0.14277 0)
(7.01972 -0.144656 0)
(7.12996 -0.146398 0)
(7.24156 -0.147984 0)
(7.35439 -0.149402 0)
(7.46834 -0.150641 0)
(7.58329 -0.151691 0)
(7.69911 -0.152539 0)
(7.81566 -0.153175 0)
(7.9328 -0.153588 0)
(8.05037 -0.153768 0)
(8.16821 -0.153706 0)
(8.28616 -0.153393 0)
(8.40405 -0.15282 0)
(8.52171 -0.151982 0)
(8.63895 -0.150872 0)
(8.75559 -0.149484 0)
(8.87144 -0.147815 0)
(5.00142 0.0299479 0)
(5.02172 0.0726326 0)
(5.0605 0.0994316 0)
(5.10709 0.12075 0)
(5.15495 0.140223 0)
(5.20191 0.155959 0)
(5.24596 0.166574 0)
(5.28492 0.172465 0)
(5.31754 0.174553 0)
(5.34359 0.173605 0)
(5.3633 0.170235 0)
(5.37711 0.165032 0)
(5.38554 0.158526 0)
(5.38927 0.151154 0)
(5.38901 0.143244 0)
(5.38544 0.135036 0)
(5.3792 0.126704 0)
(5.37087 0.118367 0)
(5.36099 0.110102 0)
(5.35002 0.101958 0)
(5.33838 0.0939632 0)
(5.32645 0.0861325 0)
(5.31455 0.0784706 0)
(5.30296 0.0709781 0)
(5.29193 0.0636502 0)
(5.28169 0.0564829 0)
(5.27243 0.0494697 0)
(5.26432 0.0426042 0)
(5.2575 0.0358834 0)
(5.25211 0.0293029 0)
(5.24827 0.0228568 0)
(5.24608 0.0165267 0)
(5.24564 0.0102926 0)
(5.24701 0.00414546 0)
(5.2502 -0.00192561 0)
(5.25527 -0.00793171 0)
(5.26228 -0.013876 0)
(5.27128 -0.0197647 0)
(5.28233 -0.0256008 0)
(5.29546 -0.0313825 0)
(5.31069 -0.0371194 0)
(5.32806 -0.0428146 0)
(5.34761 -0.0484722 0)
(5.36934 -0.0540929 0)
(5.39327 -0.0596811 0)
(5.41943 -0.0652398 0)
(5.44783 -0.070772 0)
(5.47847 -0.0762803 0)
(5.51136 -0.0817681 0)
(5.54652 -0.0872379 0)
(5.58395 -0.092693 0)
(5.62366 -0.0981358 0)
(5.66564 -0.103569 0)
(5.70991 -0.108994 0)
(5.75647 -0.114414 0)
(5.80532 -0.119829 0)
(5.85646 -0.125242 0)
(5.9099 -0.130652 0)
(5.96563 -0.136061 0)
(6.02366 -0.141468 0)
(6.08399 -0.146872 0)
(6.1466 -0.152272 0)
(6.21151 -0.157667 0)
(6.27871 -0.163053 0)
(6.34819 -0.168429 0)
(6.41995 -0.173788 0)
(6.49398 -0.179128 0)
(6.57026 -0.184443 0)
(6.6488 -0.189727 0)
(6.72957 -0.194972 0)
(6.81257 -0.200172 0)
(6.89776 -0.205316 0)
(6.98513 -0.210398 0)
(7.07466 -0.215405 0)
(7.16632 -0.220328 0)
(7.26007 -0.225153 0)
(7.35588 -0.229869 0)
(7.45371 -0.234462 0)
(7.55351 -0.238917 0)
(7.65524 -0.243218 0)
(7.75883 -0.247352 0)
(7.86424 -0.2513 0)
(7.9714 -0.255047 0)
(8.08022 -0.258573 0)
(8.19064 -0.261861 0)
(8.30258 -0.264894 0)
(8.41593 -0.267652 0)
(8.53061 -0.270116 0)
(8.64651 -0.27227 0)
(8.76353 -0.274093 0)
(8.88154 -0.275569 0)
(9.00043 -0.27668 0)
(9.12006 -0.277409 0)
(9.2403 -0.277741 0)
(9.36101 -0.277661 0)
(9.48205 -0.277156 0)
(9.60326 -0.276214 0)
(9.72449 -0.274823 0)
(9.84558 -0.272977 0)
(9.96637 -0.270665 0)
(5.00085 0.0184662 0)
(5.01104 0.0538791 0)
(5.03204 0.0827138 0)
(5.05804 0.104106 0)
(5.08459 0.119588 0)
(5.11154 0.130134 0)
(5.13952 0.136413 0)
(5.16814 0.139348 0)
(5.19665 0.139877 0)
(5.22455 0.13868 0)
(5.25157 0.136187 0)
(5.2775 0.132713 0)
(5.30215 0.128502 0)
(5.32541 0.123744 0)
(5.34727 0.118574 0)
(5.36775 0.113084 0)
(5.38694 0.107338 0)
(5.40491 0.101384 0)
(5.42178 0.0952592 0)
(5.43769 0.0889891 0)
(5.45275 0.0825943 0)
(5.46711 0.0760901 0)
(5.4809 0.0694894 0)
(5.49427 0.0628027 0)
(5.50733 0.0560396 0)
(5.52023 0.0492091 0)
(5.53308 0.0423198 0)
(5.54602 0.0353796 0)
(5.55915 0.0283967 0)
(5.5726 0.0213782 0)
(5.58648 0.0143329 0)
(5.60086 0.00726818 0)
(5.61582 0.000188756 0)
(5.63145 -0.00689867 0)
(5.6479 -0.0139922 0)
(5.66525 -0.0211007 0)
(5.68359 -0.028232 0)
(5.70297 -0.0353918 0)
(5.72346 -0.0425836 0)
(5.74513 -0.0498064 0)
(5.76804 -0.057059 0)
(5.79225 -0.0643392 0)
(5.81781 -0.0716451 0)
(5.84479 -0.0789747 0)
(5.87322 -0.0863262 0)
(5.90317 -0.0936973 0)
(5.93467 -0.101086 0)
(5.96777 -0.108491 0)
(6.00252 -0.115912 0)
(6.03896 -0.123348 0)
(6.07711 -0.130799 0)
(6.11702 -0.138264 0)
(6.15872 -0.145742 0)
(6.20224 -0.153234 0)
(6.2476 -0.160739 0)
(6.29484 -0.168256 0)
(6.34398 -0.175785 0)
(6.39504 -0.183324 0)
(6.44805 -0.190871 0)
(6.50303 -0.198426 0)
(6.55999 -0.205985 0)
(6.61895 -0.213546 0)
(6.67994 -0.221104 0)
(6.74295 -0.228657 0)
(6.80801 -0.236199 0)
(6.87513 -0.243725 0)
(6.94431 -0.251227 0)
(7.01556 -0.258699 0)
(7.08888 -0.266133 0)
(7.16429 -0.273519 0)
(7.24178 -0.280847 0)
(7.32134 -0.288107 0)
(7.40297 -0.295285 0)
(7.48667 -0.302369 0)
(7.57242 -0.309345 0)
(7.6602 -0.316196 0)
(7.75 -0.322907 0)
(7.8418 -0.329459 0)
(7.93556 -0.335835 0)
(8.03125 -0.342014 0)
(8.12884 -0.347975 0)
(8.22829 -0.353698 0)
(8.32954 -0.35916 0)
(8.43253 -0.364338 0)
(8.53722 -0.369208 0)
(8.64353 -0.373745 0)
(8.75138 -0.377926 0)
(8.86071 -0.381725 0)
(8.97141 -0.385118 0)
(9.08339 -0.388081 0)
(9.19656 -0.390589 0)
(9.31081 -0.39262 0)
(9.42601 -0.394149 0)
(9.54205 -0.395156 0)
(9.65881 -0.395622 0)
(9.77614 -0.395527 0)
(9.8939 -0.394855 0)
(10.012 -0.393591 0)
(10.1302 -0.391723 0)
(10.2483 -0.389239 0)
(5.00083 0.0141018 0)
(5.00812 0.0416235 0)
(5.02244 0.0648227 0)
(5.04105 0.0820874 0)
(5.06108 0.0946368 0)
(5.08177 0.10378 0)
(5.10317 0.110028 0)
(5.12501 0.113688 0)
(5.14682 0.115189 0)
(5.16837 0.114969 0)
(5.18963 0.113369 0)
(5.21063 0.110663 0)
(5.23139 0.107082 0)
(5.25192 0.102825 0)
(5.27225 0.0980477 0)
(5.29244 0.0928659 0)
(5.31251 0.0873666 0)
(5.3325 0.0816144 0)
(5.35244 0.0756562 0)
(5.37235 0.0695247 0)
(5.39227 0.0632418 0)
(5.41222 0.0568226 0)
(5.43224 0.0502768 0)
(5.45234 0.0436113 0)
(5.47257 0.0368313 0)
(5.49295 0.0299408 0)
(5.51354 0.022944 0)
(5.53435 0.015845 0)
(5.55544 0.00864927 0)
(5.57684 0.00136161 0)
(5.5986 -0.00601244 0)
(5.62078 -0.0134659 0)
(5.64349 -0.0209961 0)
(5.66677 -0.0286101 0)
(5.69067 -0.0363174 0)
(5.71523 -0.0441229 0)
(5.7405 -0.0520266 0)
(5.76652 -0.0600259 0)
(5.79335 -0.0681161 0)
(5.82104 -0.0762923 0)
(5.84962 -0.0845508 0)
(5.87916 -0.0928886 0)
(5.90968 -0.101303 0)
(5.94125 -0.10979 0)
(5.9739 -0.118347 0)
(6.00769 -0.126971 0)
(6.04265 -0.13566 0)
(6.07884 -0.144411 0)
(6.1163 -0.153223 0)
(6.15507 -0.162093 0)
(6.1952 -0.17102 0)
(6.23673 -0.180002 0)
(6.27971 -0.189038 0)
(6.32416 -0.198125 0)
(6.37014 -0.207262 0)
(6.41769 -0.216446 0)
(6.46684 -0.225676 0)
(6.51762 -0.234949 0)
(6.57008 -0.244262 0)
(6.62425 -0.253612 0)
(6.68017 -0.262995 0)
(6.73786 -0.272406 0)
(6.79736 -0.281841 0)
(6.8587 -0.291293 0)
(6.9219 -0.300757 0)
(6.987 -0.310224 0)
(7.05402 -0.319686 0)
(7.12297 -0.329135 0)
(7.19389 -0.338559 0)
(7.26678 -0.347946 0)
(7.34168 -0.357285 0)
(7.41857 -0.366561 0)
(7.49749 -0.37576 0)
(7.57843 -0.384863 0)
(7.6614 -0.393854 0)
(7.74639 -0.402712 0)
(7.8334 -0.411418 0)
(7.92241 -0.419949 0)
(8.01343 -0.428282 0)
(8.10641 -0.436391 0)
(8.20134 -0.44425 0)
(8.29818 -0.451832 0)
(8.39689 -0.459109 0)
(8.49743 -0.46605 0)
(8.59975 -0.472626 0)
(8.70378 -0.478804 0)
(8.80946 -0.484554 0)
(8.91671 -0.489843 0)
(9.02545 -0.494639 0)
(9.13559 -0.498909 0)
(9.24703 -0.502624 0)
(9.35966 -0.505751 0)
(9.47338 -0.508263 0)
(9.58805 -0.510127 0)
(9.70356 -0.51132 0)
(9.81976 -0.511815 0)
(9.93652 -0.511591 0)
(10.0537 -0.510626 0)
(10.1711 -0.508905 0)
(10.2886 -0.506412 0)
(5.0006 0.0108001 0)
(5.00575 0.0316097 0)
(5.01615 0.0499476 0)
(5.03062 0.0647147 0)
(5.04728 0.0761908 0)
(5.06506 0.0849062 0)
(5.08359 0.091062 0)
(5.10257 0.0947966 0)
(5.12166 0.0964077 0)
(5.14063 0.0962704 0)
(5.15941 0.0947185 0)
(5.178 0.0920239 0)
(5.19643 0.0884167 0)
(5.21475 0.0840928 0)
(5.233 0.0792103 0)
(5.25125 0.0738905 0)
(5.26957 0.0682245 0)
(5.28802 0.0622799 0)
(5.30664 0.056106 0)
(5.3255 0.0497377 0)
(5.34462 0.0431989 0)
(5.36406 0.0365055 0)
(5.38383 0.0296681 0)
(5.40396 0.0226936 0)
(5.42449 0.0155865 0)
(5.44544 0.00834959 0)
(5.46682 0.000985365 0)
(5.48867 -0.00650394 0)
(5.51101 -0.0141154 0)
(5.53387 -0.0218464 0)
(5.55728 -0.0296985 0)
(5.58128 -0.0376767 0)
(5.60588 -0.0457862 0)
(5.63112 -0.0540293 0)
(5.65701 -0.0624048 0)
(5.68361 -0.0709093 0)
(5.71093 -0.0795394 0)
(5.73902 -0.0882926 0)
(5.7679 -0.0971675 0)
(5.7976 -0.106163 0)
(5.82816 -0.115277 0)
(5.85963 -0.124509 0)
(5.89202 -0.133857 0)
(5.92538 -0.14332 0)
(5.95975 -0.152895 0)
(5.99517 -0.16258 0)
(6.03167 -0.172373 0)
(6.0693 -0.182272 0)
(6.1081 -0.192276 0)
(6.14811 -0.202381 0)
(6.18937 -0.212587 0)
(6.23192 -0.222891 0)
(6.27581 -0.233291 0)
(6.32107 -0.243786 0)
(6.36774 -0.254373 0)
(6.41588 -0.265048 0)
(6.46552 -0.275811 0)
(6.5167 -0.286656 0)
(6.56945 -0.297582 0)
(6.62383 -0.308582 0)
(6.67987 -0.319654 0)
(6.73761 -0.33079 0)
(6.79708 -0.341985 0)
(6.85833 -0.353232 0)
(6.92138 -0.364523 0)
(6.98627 -0.375848 0)
(7.05303 -0.387197 0)
(7.12169 -0.398559 0)
(7.19228 -0.409922 0)
(7.26483 -0.42127 0)
(7.33935 -0.432589 0)
(7.41587 -0.443861 0)
(7.4944 -0.455067 0)
(7.57495 -0.466189 0)
(7.65754 -0.477202 0)
(7.74217 -0.488084 0)
(7.82884 -0.498809 0)
(7.91754 -0.509351 0)
(8.00826 -0.519679 0)
(8.101 -0.529763 0)
(8.19571 -0.53957 0)
(8.29239 -0.549068 0)
(8.39099 -0.55822 0)
(8.49146 -0.566989 0)
(8.59377 -0.575338 0)
(8.69784 -0.583227 0)
(8.80362 -0.590618 0)
(8.91103 -0.597469 0)
(9.01999 -0.603741 0)
(9.13041 -0.609394 0)
(9.2422 -0.614389 0)
(9.35523 -0.618687 0)
(9.4694 -0.622248 0)
(9.58459 -0.625038 0)
(9.70065 -0.627021 0)
(9.81747 -0.628167 0)
(9.93488 -0.628449 0)
(10.0527 -0.627843 0)
(10.1709 -0.626322 0)
(10.2892 -0.623867 0)
(5.00045 0.00830099 0)
(5.00437 0.0243534 0)
(5.0124 0.0389922 0)
(5.02396 0.0513017 0)
(5.03776 0.0610603 0)
(5.05289 0.068434 0)
(5.06898 0.0736042 0)
(5.08577 0.0767379 0)
(5.10297 0.078065 0)
(5.12035 0.0778575 0)
(5.13779 0.0763668 0)
(5.15523 0.0738038 0)
(5.17264 0.0703482 0)
(5.19004 0.0661565 0)
(5.20744 0.0613601 0)
(5.2249 0.0560656 0)
(5.24245 0.0503574 0)
(5.26016 0.0443018 0)
(5.27807 0.0379505 0)
(5.29623 0.0313433 0)
(5.3147 0.0245102 0)
(5.3335 0.0174732 0)
(5.35269 0.0102489 0)
(5.3723 0.00284923 0)
(5.39235 -0.00471726 0)
(5.41289 -0.0124443 0)
(5.43393 -0.0203272 0)
(5.45551 -0.0283628 0)
(5.47765 -0.0365496 0)
(5.50038 -0.0448872 0)
(5.52373 -0.0533759 0)
(5.54771 -0.0620167 0)
(5.57236 -0.0708094 0)
(5.59771 -0.0797531 0)
(5.62377 -0.0888468 0)
(5.65057 -0.0980908 0)
(5.67815 -0.107486 0)
(5.70652 -0.117033 0)
(5.73571 -0.126734 0)
(5.76576 -0.136588 0)
(5.7967 -0.146594 0)
(5.82855 -0.156752 0)
(5.86134 -0.16706 0)
(5.89512 -0.177518 0)
(5.92991 -0.188124 0)
(5.96576 -0.198877 0)
(6.00268 -0.209775 0)
(6.04074 -0.220817 0)
(6.07995 -0.232002 0)
(6.12037 -0.243328 0)
(6.16202 -0.254794 0)
(6.20495 -0.266399 0)
(6.2492 -0.278141 0)
(6.29481 -0.290017 0)
(6.34182 -0.302027 0)
(6.39028 -0.314167 0)
(6.44022 -0.326434 0)
(6.49168 -0.338826 0)
(6.5447 -0.351337 0)
(6.59933 -0.363964 0)
(6.65561 -0.376702 0)
(6.71358 -0.389543 0)
(6.77327 -0.402481 0)
(6.83472 -0.415507 0)
(6.89797 -0.428613 0)
(6.96306 -0.441788 0)
(7.03001 -0.455019 0)
(7.09887 -0.468294 0)
(7.16966 -0.481597 0)
(7.24242 -0.494912 0)
(7.31715 -0.508221 0)
(7.3939 -0.521503 0)
(7.47268 -0.534736 0)
(7.5535 -0.547896 0)
(7.63637 -0.560958 0)
(7.72131 -0.573892 0)
(7.80832 -0.586669 0)
(7.89739 -0.599256 0)
(7.98851 -0.611618 0)
(8.08168 -0.623718 0)
(8.17688 -0.635518 0)
(8.27407 -0.646978 0)
(8.37322 -0.658053 0)
(8.47429 -0.668701 0)
(8.57724 -0.678875 0)
(8.68201 -0.688528 0)
(8.78853 -0.697612 0)
(8.89672 -0.70608 0)
(9.00651 -0.713882 0)
(9.11781 -0.720971 0)
(9.23051 -0.727299 0)
(9.34451 -0.732815 0)
(9.45969 -0.737472 0)
(9.57592 -0.741228 0)
(9.69307 -0.744046 0)
(9.811 -0.745886 0)
(9.92957 -0.746708 0)
(10.0486 -0.74648 0)
(10.1679 -0.745175 0)
(10.2874 -0.742775 0)
(5.00036 0.00638657 0)
(5.00349 0.0187565 0)
(5.00992 0.0302131 0)
(5.01935 0.0400373 0)
(5.0309 0.0479334 0)
(5.04391 0.0539283 0)
(5.05802 0.0581355 0)
(5.07299 0.0606636 0)
(5.08857 0.061646 0)
(5.10453 0.0612524 0)
(5.12074 0.0596612 0)
(5.13712 0.0570376 0)
(5.15363 0.0535296 0)
(5.17026 0.0492701 0)
(5.18701 0.0443754 0)
(5.20389 0.0389436 0)
(5.22095 0.0330555 0)
(5.23822 0.0267766 0)
(5.25573 0.0201593 0)
(5.27352 0.0132451 0)
(5.29164 0.00606614 0)
(5.31012 -0.00135279 0)
(5.32899 -0.00899313 0)
(5.34829 -0.0168406 0)
(5.36805 -0.0248849 0)
(5.3883 -0.033118 0)
(5.40908 -0.0415345 0)
(5.4304 -0.0501305 0)
(5.4523 -0.0589039 0)
(5.47481 -0.0678534 0)
(5.49794 -0.0769782 0)
(5.52174 -0.0862782 0)
(5.54621 -0.095754 0)
(5.5714 -0.105407 0)
(5.59731 -0.115237 0)
(5.62399 -0.125247 0)
(5.65146 -0.135438 0)
(5.67974 -0.145811 0)
(5.70887 -0.156365 0)
(5.73886 -0.167102 0)
(5.76976 -0.17802 0)
(5.80159 -0.189119 0)
(5.83438 -0.200401 0)
(5.86816 -0.211864 0)
(5.90298 -0.223509 0)
(5.93885 -0.235335 0)
(5.97583 -0.247342 0)
(6.01393 -0.259529 0)
(6.05321 -0.271897 0)
(6.0937 -0.284445 0)
(6.13543 -0.297171 0)
(6.17845 -0.310076 0)
(6.22279 -0.323157 0)
(6.2685 -0.336414 0)
(6.31562 -0.349845 0)
(6.36418 -0.363447 0)
(6.41423 -0.377218 0)
(6.46581 -0.391155 0)
(6.51896 -0.405252 0)
(6.57373 -0.419506 0)
(6.63014 -0.43391 0)
(6.68825 -0.448459 0)
(6.74809 -0.463143 0)
(6.80971 -0.477953 0)
(6.87313 -0.492881 0)
(6.93841 -0.507912 0)
(7.00556 -0.523034 0)
(7.07464 -0.538232 0)
(7.14566 -0.553489 0)
(7.21866 -0.568785 0)
(7.29367 -0.5841 0)
(7.37071 -0.59941 0)
(7.44981 -0.61469 0)
(7.53097 -0.629912 0)
(7.61422 -0.645047 0)
(7.69957 -0.66006 0)
(7.78702 -0.674917 0)
(7.87656 -0.689581 0)
(7.96821 -0.70401 0)
(8.06193 -0.718162 0)
(8.15772 -0.731992 0)
(8.25556 -0.745451 0)
(8.3554 -0.75849 0)
(8.45722 -0.771057 0)
(8.56095 -0.783097 0)
(8.66656 -0.794557 0)
(8.77396 -0.805378 0)
(8.8831 -0.815505 0)
(8.99389 -0.82488 0)
(9.10623 -0.833445 0)
(9.22002 -0.841141 0)
(9.33516 -0.847914 0)
(9.45152 -0.853706 0)
(9.56898 -0.858466 0)
(9.6874 -0.862148 0)
(9.80664 -0.864707 0)
(9.92654 -0.866092 0)
(10.0469 -0.866265 0)
(10.1677 -0.865196 0)
(10.2886 -0.862866 0)
(5.0003 0.00485086 0)
(5.00287 0.0142221 0)
(5.00818 0.0229782 0)
(5.01606 0.0305703 0)
(5.0259 0.0367206 0)
(5.03722 0.0413678 0)
(5.04971 0.0445407 0)
(5.06313 0.0462912 0)
(5.07727 0.0466992 0)
(5.09194 0.0458796 0)
(5.10702 0.0439654 0)
(5.1224 0.0410879 0)
(5.13806 0.0373684 0)
(5.15394 0.0329171 0)
(5.17005 0.0278323 0)
(5.18639 0.0221991 0)
(5.20297 0.0160889 0)
(5.21982 0.00956121 0)
(5.23696 0.00266459 0)
(5.25443 -0.00456173 0)
(5.27225 -0.0120864 0)
(5.29045 -0.0198846 0)
(5.30906 -0.0279372 0)
(5.32812 -0.0362291 0)
(5.34765 -0.0447488 0)
(5.36769 -0.0534878 0)
(5.38825 -0.0624397 0)
(5.40937 -0.0716 0)
(5.43108 -0.0809658 0)
(5.45339 -0.0905351 0)
(5.47635 -0.100307 0)
(5.49996 -0.110281 0)
(5.52427 -0.120459 0)
(5.54929 -0.130841 0)
(5.57505 -0.141427 0)
(5.60158 -0.15222 0)
(5.62891 -0.16322 0)
(5.65705 -0.174428 0)
(5.68605 -0.185846 0)
(5.71593 -0.197474 0)
(5.74671 -0.209313 0)
(5.77844 -0.221365 0)
(5.81113 -0.233631 0)
(5.84483 -0.246112 0)
(5.87957 -0.258807 0)
(5.91537 -0.271719 0)
(5.95228 -0.284847 0)
(5.99033 -0.298192 0)
(6.02956 -0.311755 0)
(6.07001 -0.325536 0)
(6.1117 -0.339534 0)
(6.1547 -0.353749 0)
(6.19902 -0.368181 0)
(6.24472 -0.382829 0)
(6.29183 -0.397692 0)
(6.3404 -0.412766 0)
(6.39046 -0.428051 0)
(6.44206 -0.443543 0)
(6.49524 -0.459237 0)
(6.55004 -0.475129 0)
(6.60651 -0.491212 0)
(6.66468 -0.50748 0)
(6.72459 -0.523923 0)
(6.7863 -0.540532 0)
(6.84983 -0.557296 0)
(6.91522 -0.574201 0)
(6.98251 -0.591233 0)
(7.05174 -0.608374 0)
(7.12294 -0.625605 0)
(7.19615 -0.642906 0)
(7.27138 -0.660253 0)
(7.34868 -0.677619 0)
(7.42806 -0.694976 0)
(7.50954 -0.712292 0)
(7.59314 -0.729534 0)
(7.67888 -0.746663 0)
(7.76675 -0.76364 0)
(7.85677 -0.780422 0)
(7.94893 -0.796962 0)
(8.04322 -0.813212 0)
(8.13963 -0.829119 0)
(8.23812 -0.844628 0)
(8.33869 -0.859683 0)
(8.44128 -0.874222 0)
(8.54585 -0.888185 0)
(8.65234 -0.901506 0)
(8.7607 -0.914122 0)
(8.87085 -0.925965 0)
(8.9827 -0.936969 0)
(9.09617 -0.947067 0)
(9.21116 -0.956188 0)
(9.32754 -0.964268 0)
(9.4452 -0.971245 0)
(9.56402 -0.977057 0)
(9.68384 -0.981647 0)
(9.80452 -0.98496 0)
(9.9259 -0.986946 0)
(10.0478 -0.987552 0)
(10.1701 -0.986746 0)
(10.2926 -0.984492 0)
(5.00025 0.00357798 0)
(5.00242 0.0104472 0)
(5.00693 0.0168985 0)
(5.01365 0.0224956 0)
(5.02217 0.0269916 0)
(5.03212 0.0302867 0)
(5.04325 0.0323623 0)
(5.05535 0.0332372 0)
(5.06826 0.0329591 0)
(5.08181 0.0316034 0)
(5.09586 0.0292635 0)
(5.11034 0.0260365 0)
(5.12519 0.0220161 0)
(5.14037 0.01729 0)
(5.15586 0.0119387 0)
(5.17165 0.00603382 0)
(5.18775 -0.000362147 0)
(5.20416 -0.00719633 0)
(5.22092 -0.0144241 0)
(5.23804 -0.0220084 0)
(5.25554 -0.0299193 0)
(5.27346 -0.0381321 0)
(5.2918 -0.0466275 0)
(5.31061 -0.0553899 0)
(5.32991 -0.0644076 0)
(5.34973 -0.0736713 0)
(5.37008 -0.0831744 0)
(5.391 -0.0929118 0)
(5.41251 -0.10288 0)
(5.43464 -0.113078 0)
(5.45741 -0.123504 0)
(5.48085 -0.134158 0)
(5.50498 -0.14504 0)
(5.52983 -0.156153 0)
(5.55543 -0.167496 0)
(5.5818 -0.179071 0)
(5.60896 -0.190881 0)
(5.63696 -0.202927 0)
(5.6658 -0.215211 0)
(5.69554 -0.227735 0)
(5.72618 -0.240501 0)
(5.75777 -0.253511 0)
(5.79033 -0.266767 0)
(5.8239 -0.28027 0)
(5.85851 -0.294022 0)
(5.8942 -0.308024 0)
(5.931 -0.322278 0)
(5.96894 -0.336786 0)
(6.00807 -0.351549 0)
(6.04842 -0.366567 0)
(6.09002 -0.381841 0)
(6.13293 -0.397372 0)
(6.17717 -0.41316 0)
(6.22279 -0.429205 0)
(6.26984 -0.445505 0)
(6.31834 -0.462059 0)
(6.36835 -0.478865 0)
(6.4199 -0.49592 0)
(6.47305 -0.51322 0)
(6.52782 -0.530759 0)
(6.58427 -0.548532 0)
(6.64244 -0.566531 0)
(6.70237 -0.584747 0)
(6.76409 -0.603169 0)
(6.82766 -0.621786 0)
(6.89311 -0.640583 0)
(6.96048 -0.659543 0)
(7.02981 -0.678649 0)
(7.10114 -0.697879 0)
(7.17449 -0.71721 0)
(7.24991 -0.736617 0)
(7.32741 -0.756069 0)
(7.40703 -0.775536 0)
(7.4888 -0.794981 0)
(7.57272 -0.814368 0)
(7.65881 -0.833654 0)
(7.74709 -0.852795 0)
(7.83756 -0.871741 0)
(7.93023 -0.890441 0)
(8.02508 -0.90884 0)
(8.1221 -0.926879 0)
(8.22127 -0.944495 0)
(8.32257 -0.961623 0)
(8.42596 -0.978196 0)
(8.5314 -0.994142 0)
(8.63883 -1.00939 0)
(8.7482 -1.02386 0)
(8.85942 -1.03749 0)
(8.97242 -1.05019 0)
(9.08711 -1.06188 0)
(9.20337 -1.07249 0)
(9.32111 -1.08193 0)
(9.44019 -1.09015 0)
(9.56048 -1.09707 0)
(9.68184 -1.10261 0)
(9.8041 -1.10672 0)
(9.92711 -1.10933 0)
(10.0507 -1.11041 0)
(10.1747 -1.10989 0)
(10.2989 -1.10774 0)
(5.00022 0.00249708 0)
(5.00209 0.00723023 0)
(5.00598 0.0116795 0)
(5.01183 0.0154842 0)
(5.01931 0.018432 0)
(5.02815 0.0204154 0)
(5.03815 0.0213918 0)
(5.04915 0.0213555 0)
(5.061 0.0203278 0)
(5.07355 0.0183535 0)
(5.08669 0.0154946 0)
(5.10034 0.011821 0)
(5.11443 0.00740404 0)
(5.12894 0.00231329 0)
(5.14382 -0.00338582 0)
(5.15907 -0.00963339 0)
(5.17468 -0.0163759 0)
(5.19067 -0.0235672 0)
(5.20703 -0.0311673 0)
(5.22379 -0.0391427 0)
(5.24097 -0.0474656 0)
(5.25858 -0.0561131 0)
(5.27665 -0.0650666 0)
(5.2952 -0.0743114 0)
(5.31425 -0.0838359 0)
(5.33382 -0.0936313 0)
(5.35395 -0.103691 0)
(5.37465 -0.11401 0)
(5.39595 -0.124585 0)
(5.41787 -0.135414 0)
(5.44044 -0.146497 0)
(5.46368 -0.157833 0)
(5.48762 -0.169423 0)
(5.51228 -0.181269 0)
(5.53769 -0.193373 0)
(5.56388 -0.205736 0)
(5.59086 -0.21836 0)
(5.61868 -0.231249 0)
(5.64735 -0.244404 0)
(5.6769 -0.257829 0)
(5.70738 -0.271526 0)
(5.7388 -0.285498 0)
(5.7712 -0.299747 0)
(5.80461 -0.314276 0)
(5.83906 -0.329088 0)
(5.87459 -0.344185 0)
(5.91123 -0.35957 0)
(5.94902 -0.375245 0)
(5.988 -0.391211 0)
(6.02821 -0.407472 0)
(6.06967 -0.424028 0)
(6.11244 -0.44088 0)
(6.15655 -0.45803 0)
(6.20205 -0.475477 0)
(6.24897 -0.493222 0)
(6.29736 -0.511262 0)
(6.34726 -0.529598 0)
(6.39871 -0.548224 0)
(6.45176 -0.567139 0)
(6.50646 -0.586337 0)
(6.56283 -0.605811 0)
(6.62094 -0.625554 0)
(6.68082 -0.645558 0)
(6.74251 -0.665809 0)
(6.80607 -0.686297 0)
(6.87152 -0.707004 0)
(6.93892 -0.727915 0)
(7.0083 -0.74901 0)
(7.07969 -0.770264 0)
(7.15315 -0.791655 0)
(7.2287 -0.813152 0)
(7.30637 -0.834725 0)
(7.3862 -0.856338 0)
(7.4682 -0.877953 0)
(7.55241 -0.899529 0)
(7.63884 -0.921018 0)
(7.7275 -0.942371 0)
(7.81842 -0.963535 0)
(7.91157 -0.984451 0)
(8.00698 -1.00506 0)
(8.10462 -1.02529 0)
(8.20449 -1.04508 0)
(8.30654 -1.06435 0)
(8.41077 -1.08302 0)
(8.51711 -1.10103 0)
(8.62553 -1.11827 0)
(8.73596 -1.13468 0)
(8.84833 -1.15016 0)
(8.96256 -1.16462 0)
(9.07855 -1.17798 0)
(9.1962 -1.19015 0)
(9.3154 -1.20104 0)
(9.43602 -1.21057 0)
(9.55791 -1.21866 0)
(9.68094 -1.22522 0)
(9.80494 -1.23018 0)
(9.92975 -1.23348 0)
(10.0552 -1.23506 0)
(10.1811 -1.23487 0)
(10.3072 -1.23285 0)
(5.00019 0.00156029 0)
(5.00184 0.004434 0)
(5.00526 0.00711923 0)
(5.01042 0.00930748 0)
(5.01708 0.0108178 0)
(5.02501 0.0115465 0)
(5.03408 0.011439 0)
(5.04414 0.010473 0)
(5.05506 0.00865091 0)
(5.06674 0.00599636 0)
(5.07905 0.00254892 0)
(5.09194 -0.00164246 0)
(5.10534 -0.00652487 0)
(5.1192 -0.0120447 0)
(5.1335 -0.0181501 0)
(5.14823 -0.0247925 0)
(5.16336 -0.0319275 0)
(5.17891 -0.0395158 0)
(5.19488 -0.047523 0)
(5.21127 -0.0559195 0)
(5.22811 -0.0646805 0)
(5.2454 -0.073785 0)
(5.26318 -0.0832162 0)
(5.28144 -0.0929602 0)
(5.30023 -0.103006 0)
(5.31955 -0.113346 0)
(5.33943 -0.123972 0)
(5.35989 -0.134882 0)
(5.38096 -0.146071 0)
(5.40265 -0.157539 0)
(5.425 -0.169284 0)
(5.44802 -0.181307 0)
(5.47175 -0.19361 0)
(5.49619 -0.206193 0)
(5.52139 -0.21906 0)
(5.54737 -0.232212 0)
(5.57414 -0.245654 0)
(5.60175 -0.259387 0)
(5.63022 -0.273415 0)
(5.65957 -0.287742 0)
(5.68984 -0.302371 0)
(5.72106 -0.317306 0)
(5.75326 -0.33255 0)
(5.78647 -0.348107 0)
(5.82073 -0.363981 0)
(5.85606 -0.380175 0)
(5.89251 -0.396692 0)
(5.93011 -0.413536 0)
(5.9689 -0.43071 0)
(6.00891 -0.448215 0)
(6.05019 -0.466056 0)
(6.09278 -0.484233 0)
(6.13671 -0.502748 0)
(6.18203 -0.521602 0)
(6.22878 -0.540796 0)
(6.277 -0.560329 0)
(6.32674 -0.5802 0)
(6.37804 -0.600406 0)
(6.43094 -0.620945 0)
(6.4855 -0.641811 0)
(6.54175 -0.662998 0)
(6.59974 -0.684498 0)
(6.65952 -0.706303 0)
(6.72113 -0.7284 0)
(6.78462 -0.750776 0)
(6.85003 -0.773415 0)
(6.9174 -0.796299 0)
(6.98677 -0.819407 0)
(7.0582 -0.842715 0)
(7.13171 -0.866195 0)
(7.20735 -0.889817 0)
(7.28514 -0.913547 0)
(7.36514 -0.937347 0)
(7.44735 -0.961176 0)
(7.53182 -0.984987 0)
(7.61856 -1.00873 0)
(7.70759 -1.03235 0)
(7.79892 -1.05579 0)
(7.89257 -1.07899 0)
(7.98853 -1.10187 0)
(8.0868 -1.12436 0)
(8.18737 -1.14639 0)
(8.29021 -1.16788 0)
(8.3953 -1.18874 0)
(8.50259 -1.20888 0)
(8.61205 -1.22821 0)
(8.72361 -1.24664 0)
(8.83719 -1.26406 0)
(8.95273 -1.28037 0)
(9.07012 -1.29549 0)
(9.18927 -1.3093 0)
(9.31005 -1.32171 0)
(9.43233 -1.33263 0)
(9.55598 -1.34195 0)
(9.68084 -1.3496 0)
(9.80674 -1.35548 0)
(9.93352 -1.35953 0)
(10.061 -1.36167 0)
(10.1889 -1.36183 0)
(10.3172 -1.35998 0)
(5.00017 0.000734733 0)
(5.00164 0.00196372 0)
(5.00469 0.00307493 0)
(5.00931 0.00379619 0)
(5.0153 0.00397221 0)
(5.02249 0.00350699 0)
(5.03077 0.00234212 0)
(5.04003 0.000445612 0)
(5.05015 -0.00219259 0)
(5.06105 -0.00556404 0)
(5.07263 -0.00964586 0)
(5.08482 -0.0144058 0)
(5.09757 -0.0198063 0)
(5.11083 -0.0258074 0)
(5.12458 -0.0323693 0)
(5.13879 -0.0394532 0)
(5.15346 -0.0470233 0)
(5.16857 -0.0550467 0)
(5.18413 -0.0634944 0)
(5.20016 -0.072341 0)
(5.21664 -0.0815647 0)
(5.23361 -0.0911473 0)
(5.25107 -0.101074 0)
(5.26904 -0.111331 0)
(5.28754 -0.12191 0)
(5.30659 -0.132803 0)
(5.32621 -0.144005 0)
(5.34641 -0.155511 0)
(5.36723 -0.16732 0)
(5.38867 -0.179429 0)
(5.41078 -0.19184 0)
(5.43356 -0.204552 0)
(5.45704 -0.217568 0)
(5.48125 -0.23089 0)
(5.50621 -0.244521 0)
(5.53195 -0.258464 0)
(5.55849 -0.272723 0)
(5.58587 -0.287301 0)
(5.6141 -0.302202 0)
(5.64322 -0.317432 0)
(5.67325 -0.332994 0)
(5.70424 -0.348893 0)
(5.7362 -0.365133 0)
(5.76918 -0.38172 0)
(5.8032 -0.398656 0)
(5.8383 -0.415948 0)
(5.87451 -0.433599 0)
(5.91188 -0.451613 0)
(5.95043 -0.469995 0)
(5.99021 -0.488747 0)
(6.03126 -0.507874 0)
(6.07362 -0.527379 0)
(6.11732 -0.547262 0)
(6.16242 -0.567528 0)
(6.20895 -0.588176 0)
(6.25695 -0.609206 0)
(6.30648 -0.630619 0)
(6.35758 -0.652412 0)
(6.41028 -0.674583 0)
(6.46465 -0.697126 0)
(6.52072 -0.720037 0)
(6.57855 -0.743308 0)
(6.63817 -0.766928 0)
(6.69965 -0.790887 0)
(6.76301 -0.815171 0)
(6.82832 -0.839764 0)
(6.89561 -0.864645 0)
(6.96494 -0.889793 0)
(7.03634 -0.915183 0)
(7.10987 -0.940786 0)
(7.18555 -0.966569 0)
(7.26343 -0.992497 0)
(7.34355 -1.01853 0)
(7.42595 -1.04462 0)
(7.51064 -1.07072 0)
(7.59766 -1.09677 0)
(7.68704 -1.12272 0)
(7.77878 -1.1485 0)
(7.87291 -1.17404 0)
(7.96942 -1.19927 0)
(8.06833 -1.22411 0)
(8.16961 -1.24846 0)
(8.27325 -1.27226 0)
(8.37924 -1.29538 0)
(8.48752 -1.31776 0)
(8.59807 -1.33926 0)
(8.71082 -1.3598 0)
(8.8257 -1.37926 0)
(8.94263 -1.39753 0)
(9.06152 -1.41449 0)
(9.18227 -1.43004 0)
(9.30476 -1.44407 0)
(9.42884 -1.45646 0)
(9.55439 -1.46711 0)
(9.68123 -1.47593 0)
(9.80921 -1.48281 0)
(9.93813 -1.48766 0)
(10.0678 -1.49041 0)
(10.198 -1.49099 0)
(10.3286 -1.48935 0)
(5.00015 -3.17629e-06 0)
(5.00148 -0.000248575 0)
(5.00424 -0.000557479 0)
(5.00842 -0.00117703 0)
(5.01386 -0.002242 0)
(5.02043 -0.00383943 0)
(5.02804 -0.00602744 0)
(5.03661 -0.00884298 0)
(5.04604 -0.0123044 0)
(5.05625 -0.016414 0)
(5.06717 -0.0211614 0)
(5.07872 -0.0265273 0)
(5.09087 -0.0324862 0)
(5.10357 -0.0390098 0)
(5.11679 -0.0460679 0)
(5.13051 -0.053631 0)
(5.14471 -0.0616705 0)
(5.15939 -0.07016 0)
(5.17455 -0.0790757 0)
(5.1902 -0.0883964 0)
(5.20633 -0.0981037 0)
(5.22295 -0.108182 0)
(5.24009 -0.118619 0)
(5.25775 -0.129402 0)
(5.27595 -0.140525 0)