/*--------------------------------*- C++ -*----------------------------------*\
| =========                 |                                                 |
| \\      /  F ield         | OpenFOAM: The Open Source CFD Toolbox           |
|  \\    /   O peration     | Version:  2406                                  |
|   \\  /    A nd           | Website:  www.openfoam.com                      |
|    \\/     M anipulation  |                                                 |
\*---------------------------------------------------------------------------*/
FoamFile
{
    version     2.0;
    format      ascii;
    arch        "LSB;label=32;scalar=64";
    class       volScalarField;
    location    "600";
    object      p;
}
// * * * * * * * * * * * * * * * * * * * * * * * * * * * * * * * * * * * * * //

dimensions      [0 2 -2 0 0 0 0];

internalField   nonuniform List<scalar> 
150000
(
235.59
128.45
71.4604
48.1728
34.8184
26.0056
20.2377
16.264
13.3157
11.0078
9.13221
7.56255
6.2183
5.0462
4.00936
3.08118
2.24186
1.47627
0.77261
0.121503
-0.484616
-1.05193
-1.58553
-2.0897
-2.56802
-3.02353
-3.45883
-3.87618
-4.27751
-4.66451
-5.03867
-5.40127
-5.75348
-6.09632
-6.43069
-6.7574
-7.07719
-7.39071
-7.69855
-8.00126
-8.29933
-8.59319
-8.88326
-9.16991
-9.45349
-9.73431
-10.0127
-10.2888
-10.5631
-10.8356
-11.1067
-11.3765
-11.6453
-11.9131
-12.1803
-12.447
-12.7133
-12.9794
-13.2455
-13.5116
-13.7781
-14.0449
-14.3122
-14.5803
-14.8491
-15.1189
-15.3898
-15.662
-15.9356
-16.2107
-16.4875
-16.7662
-17.047
-17.3299
-17.6153
-17.9033
-18.1941
-18.4879
-18.7851
-19.0858
-19.3903
-19.6991
-20.0123
-20.3305
-20.6539
-20.9832
-21.3188
-21.6614
-22.0115
-22.37
-22.7376
-23.1153
-23.5046
-23.9076
-24.329
-24.7812
-25.2897
-25.8787
-26.619
-28.447
134.756
95.1293
65.5354
48.9546
37.5381
29.0901
23.0501
18.6616
15.3245
12.6914
10.5542
8.77631
7.26558
5.95905
4.81238
3.79338
2.87807
2.04823
1.28971
0.591339
-0.0558145
-0.659009
-1.2242
-1.75633
-2.25954
-2.73732
-3.19264
-3.62805
-4.04573
-4.44761
-4.83533
-5.21036
-5.57396
-5.92729
-6.27133
-6.607
-6.93509
-7.25633
-7.57136
-7.88078
-8.18511
-8.48485
-8.78043
-9.07226
-9.36072
-9.64615
-9.92886
-10.2092
-10.4873
-10.7636
-11.0382
-11.3113
-11.5833
-11.8542
-12.1244
-12.3938
-12.6628
-12.9316
-13.2001
-13.4687
-13.7375
-14.0066
-14.2762
-14.5464
-14.8173
-15.0892
-15.3622
-15.6364
-15.9119
-16.189
-16.4678
-16.7485
-17.0312
-17.3161
-17.6035
-17.8935
-18.1864
-18.4824
-18.7818
-19.0849
-19.3919
-19.7032
-20.0192
-20.3404
-20.6672
-21.0001
-21.3399
-21.6872
-22.0429
-22.4082
-22.7843
-23.1731
-23.5769
-23.9996
-24.4472
-24.9307
-25.4673
-26.0828
-26.8781
-28.2082
86.2305
74.9981
60.3497
48.2072
38.5945
30.968
25.092
20.5778
17.0356
14.193
11.8662
9.92476
8.27579
6.85295
5.60823
4.50616
3.52
2.6293
1.81814
1.07394
0.386627
-0.251966
-0.848531
-1.40861
-1.93682
-2.43708
-2.91269
-3.36647
-3.80087
-4.21799
-4.61966
-5.00748
-5.38286
-5.74705
-6.10114
-6.44612
-6.78286
-7.11215
-7.43469
-7.75113
-8.06203
-8.36793
-8.66931
-8.96659
-9.26019
-9.55047
-9.83777
-10.1224
-10.4047
-10.6848
-10.9632
-11.2399
-11.5153
-11.7894
-12.0627
-12.3351
-12.607
-12.8784
-13.1497
-13.4208
-13.6921
-13.9636
-14.2355
-14.5079
-14.7811
-15.0552
-15.3302
-15.6065
-15.8841
-16.1632
-16.444
-16.7267
-17.0114
-17.2984
-17.5878
-17.8799
-18.1749
-18.473
-18.7746
-19.0799
-19.3893
-19.7031
-20.0218
-20.3458
-20.6756
-21.0119
-21.3555
-21.707
-22.0677
-22.4388
-22.822
-23.2195
-23.6343
-24.0706
-24.5343
-25.0336
-25.5784
-26.1788
-26.8542
-27.633
65.5963
61.9516
53.7288
44.9619
37.3812
31.0113
25.7611
21.4969
18.024
15.165
12.7825
10.771
9.04996
7.55867
6.25125
5.09276
4.05627
3.12081
2.26985
1.49021
0.771253
0.104333
-0.517673
-1.10067
-1.64961
-2.16866
-2.66136
-3.13074
-3.5794
-4.00961
-4.42331
-4.82223
-5.20786
-5.58155
-5.94445
-6.29763
-6.64201
-6.97843
-7.30764
-7.63032
-7.94709
-8.2585
-8.56506
-8.86723
-9.16544
-9.46009
-9.75152
-10.0401
-10.3261
-10.6098
-10.8915
-11.1714
-11.4498
-11.7269
-12.0029
-12.2781
-12.5525
-12.8264
-13.1
-13.3735
-13.6469
-13.9206
-14.1945
-14.469
-14.7441
-15.0201
-15.297
-15.5751
-15.8545
-16.1353
-16.4178
-16.7022
-16.9886
-17.2772
-17.5683
-17.862
-18.1587
-18.4585
-18.7617
-19.0687
-19.3799
-19.6955
-20.016
-20.3419
-20.6737
-21.0121
-21.3579
-21.7118
-22.075
-22.4487
-22.8346
-23.2347
-23.6515
-24.0878
-24.5472
-25.0326
-25.5449
-26.0779
-26.6122
-27.1045
52.9437
51.6142
46.9519
40.9935
35.2992
30.1744
25.6766
21.8256
18.5637
15.7991
13.4443
11.4241
9.67589
8.14913
6.80345
5.60687
4.53399
3.56451
2.68214
1.87369
1.12843
0.437497
-0.206412
-0.80941
-1.37663
-1.91242
-2.42047
-2.90396
-3.36562
-3.80781
-4.2326
-4.64178
-5.03694
-5.41948
-5.79064
-6.15151
-6.50308
-6.84622
-7.18174
-7.51035
-7.83268
-8.14934
-8.46084
-8.76767
-9.07029
-9.36911
-9.66449
-9.95679
-10.2463
-10.5334
-10.8183
-11.1013
-11.3827
-11.6626
-11.9413
-12.2189
-12.4958
-12.7721
-13.0479
-13.3236
-13.5991
-13.8747
-14.1506
-14.427
-14.7039
-14.9816
-15.2602
-15.5399
-15.8208
-16.1032
-16.3873
-16.6731
-16.9609
-17.2509
-17.5433
-17.8384
-18.1363
-18.4373
-18.7418
-19.05
-19.3623
-19.679
-20.0006
-20.3275
-20.6602
-20.9994
-21.3458
-21.7001
-22.0632
-22.4364
-22.8207
-23.2177
-23.6286
-24.0547
-24.4963
-24.9519
-25.4154
-25.8725
-26.295
-26.6356
44.2447
43.7959
41.1277
37.1345
32.9197
28.8644
25.1057
21.7309
18.7595
16.1633
13.8982
11.9184
10.1809
8.6472
7.28478
6.06636
4.96939
3.9753
3.06877
2.23716
1.47
0.758554
0.0955309
-0.525221
-1.10891
-1.65995
-2.18214
-2.67874
-3.15256
-3.60605
-4.04134
-4.4603
-4.86458
-5.25562
-5.63473
-6.00305
-6.36159
-6.71129
-7.05296
-7.38735
-7.71513
-8.03692
-8.35327
-8.66469
-8.97164
-9.27456
-9.57383
-9.86982
-10.1629
-10.4533
-10.7414
-11.0274
-11.3116
-11.5942
-11.8755
-12.1557
-12.435
-12.7135
-12.9915
-13.2692
-13.5468
-13.8243
-14.102
-14.3801
-14.6587
-14.938
-15.2182
-15.4994
-15.7817
-16.0655
-16.3508
-16.6379
-16.9268
-17.2179
-17.5114
-17.8074
-18.1063
-18.4081
-18.7134
-19.0222
-19.335
-19.6521
-19.9739
-20.3008
-20.6333
-20.9719
-21.3171
-21.6698
-22.0304
-22.3998
-22.7786
-23.1675
-23.5666
-23.9754
-24.3919
-24.8113
-25.2241
-25.6138
-25.9536
-26.2056
38.0608
37.9326
36.3172
33.5854
30.461
27.2788
24.189
21.2963
18.6557
16.2781
14.1517
12.2553
10.5636
9.05118
7.69405
6.47086
5.363
4.35448
3.43167
2.58302
1.79874
1.07053
0.391347
-0.244825
-0.843118
-1.40794
-1.94308
-2.45184
-2.93705
-3.40122
-3.84651
-4.27485
-4.68793
-5.08723
-5.47408
-5.84967
-6.21506
-6.5712
-6.91894
-7.25905
-7.59224
-7.91913
-8.2403
-8.55628
-8.86755
-9.17456
-9.47771
-9.77738
-10.0739
-10.3677
-10.6589
-10.9479
-11.235
-11.5203
-11.8042
-12.0868
-12.3684
-12.6492
-12.9294
-13.2091
-13.4886
-13.7679
-14.0474
-14.3271
-14.6073
-14.8881
-15.1697
-15.4522
-15.7358
-16.0207
-16.3071
-16.5952
-16.885
-17.177
-17.4711
-17.7678
-18.0671
-18.3693
-18.6748
-18.9837
-19.2963
-19.613
-19.9341
-20.26
-20.591
-20.9275
-21.27
-21.619
-21.9747
-22.3374
-22.7075
-23.0844
-23.4676
-23.855
-24.243
-24.6251
-24.9911
-25.3251
-25.6049
-25.8031
33.4137
33.3845
32.3362
30.4132
28.077
25.582
23.0616
20.6157
18.3097
16.1743
14.2182
12.4375
10.8216
9.3562
8.02587
6.81545
5.71079
4.69906
3.76886
2.9102
2.11436
1.37377
0.681892
0.0330503
-0.577671
-1.15454
-1.70126
-2.22109
-2.71684
-3.19101
-3.64578
-4.08309
-4.50463
-4.91194
-5.30635
-5.68909
-6.06123
-6.42375
-6.77752
-7.12334
-7.46193
-7.79393
-8.11994
-8.44051
-8.75613
-9.06726
-9.37432
-9.6777
-9.97777
-10.2749
-10.5693
-10.8613
-11.1512
-11.4393
-11.7258
-12.0109
-12.2948
-12.5778
-12.8601
-13.1418
-13.4231
-13.7042
-13.9854
-14.2667
-14.5483
-14.8305
-15.1133
-15.397
-15.6817
-15.9676
-16.2549
-16.5436
-16.8342
-17.1266
-17.4212
-17.718
-18.0174
-18.3195
-18.6246
-18.933
-19.2447
-19.5602
-19.8798
-20.2035
-20.5319
-20.865
-21.2032
-21.5466
-21.8953
-22.2492
-22.6079
-22.9704
-23.3351
-23.6992
-24.0582
-24.4053
-24.7304
-25.0198
-25.2563
-25.4209
29.7489
29.7451
29.0219
27.6273
25.8548
23.887
21.8322
19.7768
17.784
15.8919
14.1197
12.4746
10.9561
9.55875
8.27427
7.09323
6.00587
5.0027
4.07482
3.21409
2.41313
1.6654
0.965062
0.306962
-0.313439
-0.900143
-1.45668
-1.98615
-2.4913
-2.97457
-3.4381
-3.8838
-4.31338
-4.72835
-5.13008
-5.51978
-5.89854
-6.26734
-6.62709
-6.97859
-7.32257
-7.65969
-7.99057
-8.31577
-8.63578
-8.95108
-9.26211
-9.56926
-9.8729
-10.1734
-10.471
-10.7661
-11.0589
-11.3498
-11.6388
-11.9264
-12.2127
-12.4979
-12.7822
-13.0659
-13.3491
-13.6319
-13.9147
-14.1975
-14.4805
-14.7639
-15.0479
-15.3326
-15.6182
-15.9049
-16.1928
-16.4821
-16.773
-17.0657
-17.3602
-17.657
-17.956
-18.2575
-18.5617
-18.8689
-19.1791
-19.4926
-19.8097
-20.1304
-20.455
-20.7835
-21.116
-21.4524
-21.7925
-22.1358
-22.4815
-22.828
-23.1733
-23.5141
-23.8455
-24.1609
-24.4514
-24.7057
-24.911
-25.0541
26.7613
26.7616
26.2368
25.1946
23.8256
22.2582
20.5761
18.8503
17.1369
15.474
13.8851
12.3835
10.975
9.66015
8.43634
7.29876
6.2415
5.25821
4.34245
3.488
2.68901
1.94006
1.2362
0.572949
-0.0537347
-0.647471
-1.2115
-1.74872
-2.26172
-2.75282
-3.22407
-3.67734
-4.11428
-4.53639
-4.945
-5.34131
-5.72643
-6.10134
-6.46692
-6.824
-7.17331
-7.51552
-7.85125
-8.18107
-8.50549
-8.82499
-9.14002
-9.45097
-9.75823
-10.0621
-10.363
-10.6612
-10.957
-11.2506
-11.5423
-11.8324
-12.121
-12.4084
-12.6948
-12.9804
-13.2654
-13.55
-13.8343
-14.1185
-14.4028
-14.6874
-14.9724
-15.258
-15.5444
-15.8316
-16.12
-16.4096
-16.7006
-16.9931
-17.2874
-17.5836
-17.8818
-18.1823
-18.4851
-18.7905
-19.0986
-19.4094
-19.7232
-20.0401
-20.3599
-20.6827
-21.0085
-21.3367
-21.6671
-21.9987
-22.3304
-22.6605
-22.9865
-23.3048
-23.6109
-23.8987
-24.1605
-24.3875
-24.57
-24.699
24.2667
24.2657
23.8689
23.0681
21.9912
20.7279
19.3415
17.8886
16.4169
14.9613
13.5458
12.1863
10.8921
9.66775
8.51436
7.43066
6.41385
5.46021
4.56553
3.72541
2.93547
2.19149
1.48945
0.825635
0.196582
-0.400861
-0.969572
-1.51217
-2.03101
-2.52826
-3.00583
-3.46549
-3.90881
-4.33724
-4.75206
-5.15445
-5.54548
-5.92611
-6.29724
-6.65967
-7.01412
-7.36128
-7.70177
-8.03614
-8.36491
-8.68858
-9.00759
-9.32234
-9.63321
-9.94058
-10.2448
-10.5461
-10.8448
-11.1412
-11.4355
-11.7281
-12.0191
-12.3087
-12.5971
-12.8846
-13.1714
-13.4576
-13.7434
-14.029
-14.3145
-14.6001
-14.886
-15.1724
-15.4593
-15.747
-16.0356
-16.3253
-16.6161
-16.9083
-17.2019
-17.4972
-17.7943
-18.0933
-18.3942
-18.6973
-19.0026
-19.3102
-19.6201
-19.9323
-20.2466
-20.563
-20.8811
-21.2005
-21.5204
-21.8398
-22.1573
-22.4711
-22.7785
-23.0761
-23.3596
-23.6237
-23.8621
-24.0677
-24.2334
-24.353
22.1451
22.1422
21.8323
21.2018
20.3395
19.3088
18.1567
16.9279
15.6616
14.3885
13.1315
11.9067
10.7251
9.59353
8.51548
7.49216
6.52309
5.60663
4.74041
3.92162
3.14722
2.41409
1.71917
1.05948
0.432202
-0.16532
-0.735552
-1.28078
-1.8031
-2.30444
-2.78658
-3.25111
-3.69953
-4.13317
-4.55327
-4.96094
-5.3572
-5.743
-6.1192
-6.48657
-6.84584
-7.19767
-7.54267
-7.88141
-8.21439
-8.5421
-8.86499
-9.18345
-9.49789
-9.80865
-10.1161
-10.4204
-10.7221
-11.0213
-11.3182
-11.6133
-11.9065
-12.1983
-12.4888
-12.7782
-13.0667
-13.3544
-13.6416
-13.9285
-14.2151
-14.5017
-14.7884
-15.0754
-15.3628
-15.6507
-15.9393
-16.2288
-16.5192
-16.8108
-17.1035
-17.3976
-17.6931
-17.9902
-18.2889
-18.5892
-18.8913
-19.195
-19.5005
-19.8074
-20.1157
-20.4251
-20.735
-21.045
-21.3541
-21.6612
-21.9648
-22.2629
-22.553
-22.8318
-23.0956
-23.3396
-23.5589
-23.7478
-23.9012
-24.0146
20.3147
20.3106
20.0622
19.5553
18.8536
18.0024
17.0365
15.991
14.8978
13.7831
12.6677
11.5669
10.4923
9.45171
8.45003
7.49009
6.57306
5.69884
4.86652
4.07457
3.32109
2.60396
1.92095
1.26982
0.648345
0.0543859
-0.5141
-1.05904
-1.58225
-2.08541
-2.57009
-3.03774
-3.4897
-3.92721
-4.35139
-4.7633
-5.16391
-5.5541
-5.93468
-6.30642
-6.67001
-7.02608
-7.37523
-7.718
-8.05492
-8.38644
-8.713
-9.03501
-9.35285
-9.66688
-9.97742
-10.2848
-10.5893
-10.8911
-11.1907
-11.4881
-11.7836
-12.0775
-12.3699
-12.6611
-12.9512
-13.2405
-13.529
-13.817
-14.1047
-14.3921
-14.6794
-14.9669
-15.2545
-15.5425
-15.831
-16.1201
-16.4099
-16.7005
-16.9921
-17.2847
-17.5784
-17.8732
-18.1692
-18.4664
-18.7648
-19.0643
-19.3649
-19.6662
-19.968
-20.27
-20.5715
-20.872
-21.1703
-21.4654
-21.7556
-22.039
-22.3132
-22.5754
-22.822
-23.0492
-23.2529
-23.4289
-23.5731
-23.6826
18.7176
18.7127
18.5097
18.0947
17.5152
16.804
15.987
15.0917
14.1438
13.1655
12.1748
11.1863
10.2108
9.25671
8.32962
7.43333
6.57009
5.74093
4.94599
4.18478
3.4563
2.75927
2.09219
1.45346
0.841425
0.254416
-0.309197
-0.850992
-1.37248
-1.8751
-2.36019
-2.82904
-3.28282
-3.72266
-4.14957
-4.56451
-4.96838
-5.36199
-5.74612
-6.12147
-6.48871
-6.84843
-7.20121
-7.54758
-7.88802
-8.22299
-8.55292
-8.8782
-9.19921
-9.51628
-9.82976
-10.1399
-10.4471
-10.7515
-11.0534
-11.3531
-11.6508
-11.9467
-12.2409
-12.5338
-12.8255
-13.1161
-13.4059
-13.6949
-13.9834
-14.2716
-14.5594
-14.8472
-15.1349
-15.4228
-15.7109
-15.9994
-16.2884
-16.5779
-16.868
-17.1588
-17.4504
-17.7427
-18.0357
-18.3295
-18.6239
-18.9189
-19.2142
-19.5096
-19.8048
-20.0992
-20.3923
-20.6833
-20.9711
-21.2546
-21.5323
-21.8022
-22.0621
-22.3095
-22.5414
-22.7547
-22.9458
-23.1117
-23.2492
-23.3562
17.3107
17.3057
17.1369
16.7919
16.3069
15.7062
15.0093
14.2374
13.4115
12.55
11.6686
10.7802
9.89527
9.02176
8.16571
7.33142
6.52181
5.73867
4.98292
4.25482
3.55411
2.88017
2.23212
1.6089
1.00934
0.43221
-0.123738
-0.659755
-1.17706
-1.67686
-2.16026
-2.62838
-3.08222
-3.52277
-3.95094
-4.36759
-4.77352
-5.16948
-5.55618
-5.93426
-6.30435
-6.66702
-7.02279
-7.37217
-7.71562
-8.05359
-8.38646
-8.71464
-9.03846
-9.35828
-9.67441
-9.98714
-10.2967
-10.6035
-10.9076
-11.2094
-11.5091
-11.8068
-12.1027
-12.3971
-12.6902
-12.982
-13.2729
-13.5628
-13.8521
-14.1407
-14.4289
-14.7168
-15.0045
-15.2921
-15.5797
-15.8674
-16.1553
-16.4435
-16.732
-17.0208
-17.3099
-17.5995
-17.8893
-18.1794
-18.4697
-18.7599
-19.0498
-19.3392
-19.6276
-19.9145
-20.1992
-20.481
-20.7588
-21.0314
-21.2974
-21.555
-21.8022
-22.0368
-22.2562
-22.4578
-22.6388
-22.7968
-22.9294
-23.0351
16.0619
16.0569
15.9147
15.6241
15.2133
14.7009
14.1014
13.4315
12.7082
11.9467
11.1604
10.3609
9.55767
8.75828
7.96875
7.1936
6.43612
5.6986
4.9825
4.28863
3.61729
2.96839
2.34154
1.73613
1.15142
0.586554
0.0406075
-0.487365
-0.998324
-1.49322
-1.97299
-2.43854
-2.89074
-3.33043
-3.75839
-4.17539
-4.58213
-4.97929
-5.3675
-5.74736
-6.11943
-6.48423
-6.84226
-7.19399
-7.53985
-7.88024
-8.21556
-8.54616
-8.87239
-9.19457
-9.51299
-9.82795
-10.1397
-10.4485
-10.7546
-11.0583
-11.3596
-11.6589
-11.9564
-12.2521
-12.5464
-12.8393
-13.131
-13.4217
-13.7115
-14.0005
-14.2889
-14.5768
-14.8642
-15.1513
-15.4382
-15.725
-16.0116
-16.2982
-16.5848
-16.8715
-17.1581
-17.4447
-17.7311
-18.0174
-18.3033
-18.5886
-18.8731
-19.1564
-19.4381
-19.7176
-19.9942
-20.2672
-20.5355
-20.798
-21.0534
-21.2999
-21.5359
-21.7594
-21.9682
-22.1601
-22.333
-22.4848
-22.614
-22.7191
14.946
14.9413
14.8201
14.5723
14.2207
13.7796
13.2598
12.6747
12.0378
11.362
10.6585
9.93756
9.2076
8.47576
7.74778
7.0282
6.3205
5.62726
4.95029
4.2908
3.64949
3.02669
2.4224
1.83638
1.26823
0.717419
0.183311
-0.334777
-0.837569
-1.3258
-1.80023
-2.26157
-2.71057
-3.14791
-3.57427
-3.99031
-4.39664
-4.79386
-5.18252
-5.56317
-5.9363
-6.3024
-6.66191
-7.01526
-7.36284
-7.70506
-8.04225
-8.37475
-8.7029
-9.02698
-9.34729
-9.66408
-9.97763
-10.2882
-10.5959
-10.9011
-11.2039
-11.5046
-11.8033
-12.1001
-12.3954
-12.6891
-12.9815
-13.2727
-13.5629
-13.8521
-14.1404
-14.4281
-14.7151
-15.0016
-15.2876
-15.5732
-15.8584
-16.1433
-16.4279
-16.7122
-16.996
-17.2795
-17.5625
-17.8448
-18.1263
-18.4067
-18.6857
-18.963
-19.2381
-19.5105
-19.7794
-20.0441
-20.3035
-20.5568
-20.8024
-21.0391
-21.2652
-21.4791
-21.679
-21.863
-22.0293
-22.1765
-22.3031
-22.4084
13.9434
13.939
13.8346
13.6211
13.3174
12.9343
12.4804
11.9661
11.4025
10.8001
10.1687
9.51693
8.85247
8.1818
7.51033
6.84246
6.18172
5.5308
4.89177
4.26609
3.65476
3.05842
2.47737
1.91167
1.36121
0.825705
0.304786
-0.202009
-0.695197
-1.17533
-1.64298
-2.09872
-2.54315
-2.97684
-3.40035
-3.81423
-4.21901
-4.6152
-5.0033
-5.38378
-5.75707
-6.12361
-6.4838
-6.83803
-7.18666
-7.53004
-7.8685
-8.20234
-8.53188
-8.85737
-9.1791
-9.49732
-9.81225
-10.1241
-10.4332
-10.7396
-11.0436
-11.3453
-11.6449
-11.9426
-12.2386
-12.5329
-12.8258
-13.1173
-13.4076
-13.6968
-13.9849
-14.2722
-14.5586
-14.8442
-15.1291
-15.4134
-15.697
-15.9801
-16.2625
-16.5442
-16.8253
-17.1055
-17.3849
-17.6632
-17.9403
-18.2158
-18.4895
-18.7609
-19.0297
-19.2952
-19.5568
-19.8137
-20.065
-20.3097
-20.5467
-20.7746
-20.9922
-21.1979
-21.3902
-21.5676
-21.7287
-21.8723
-21.9973
-22.1031
13.0383
13.0342
12.9434
12.7579
12.4932
12.1579
11.7588
11.304
10.8026
10.2635
9.69474
9.10398
8.49792
7.88244
7.26256
6.64247
6.02561
5.41474
4.81202
4.21909
3.63717
3.06711
2.50945
1.96449
1.43234
0.912947
0.406135
-0.0883602
-0.570873
-1.04179
-1.50153
-1.95054
-2.38928
-2.8182
-3.23777
-3.64843
-4.05065
-4.44484
-4.83144
-5.21084
-5.58345
-5.94962
-6.30973
-6.66411
-7.0131
-7.357
-7.69611
-8.03073
-8.36111
-8.68751
-9.01019
-9.32936
-9.64526
-9.95809
-10.2681
-10.5753
-10.8801
-11.1826
-11.4829
-11.7811
-12.0775
-12.3722
-12.6653
-12.9569
-13.2471
-13.536
-13.8237
-14.1104
-14.3959
-14.6806
-14.9642
-15.247
-15.5289
-15.8099
-16.09
-16.3692
-16.6473
-16.9243
-17.2
-17.4743
-17.747
-18.0177
-18.2861
-18.5519
-18.8146
-19.0736
-19.3284
-19.5781
-19.8219
-20.0589
-20.2881
-20.5083
-20.7184
-20.917
-21.103
-21.275
-21.432
-21.5729
-21.6969
-21.8035
12.2178
12.2141
12.1345
11.9719
11.7394
11.4439
11.0906
10.6861
10.2379
9.7533
9.23923
8.7022
8.14816
7.58236
7.00941
6.43324
5.85715
5.28386
4.71557
4.15403
3.60059
3.05626
2.52175
1.99754
1.48394
0.98106
0.488905
0.00737035
-0.463723
-0.924619
-1.3756
-1.817
-2.24914
-2.67239
-3.08712
-3.49369
-3.89246
-4.2838
-4.66807
-5.04561
-5.41674
-5.78181
-6.14113
-6.49498
-6.84368
-7.18748
-7.52667
-7.86148
-8.19218
-8.51899
-8.84213
-9.16181
-9.47824
-9.79161
-10.1021
-10.4099
-10.7151
-11.018
-11.3186
-11.6172
-11.9137
-12.2085
-12.5015
-12.7929
-13.0828
-13.3712
-13.6583
-13.9441
-14.2287
-14.5121
-14.7944
-15.0756
-15.3556
-15.6344
-15.9121
-16.1886
-16.4637
-16.7374
-17.0095
-17.2798
-17.5481
-17.8141
-18.0775
-18.3379
-18.5948
-18.8477
-19.0961
-19.3391
-19.5761
-19.8062
-20.0285
-20.2419
-20.4455
-20.6381
-20.8187
-20.9863
-21.14
-21.2788
-21.4023
-21.5101
11.4716
11.4681
11.3978
11.2542
11.0485
10.7863
10.4717
10.11
9.70741
9.27
8.80368
8.31405
7.80632
7.28518
6.75482
6.21888
5.68048
5.14225
4.6064
4.07469
3.54856
3.02913
2.51724
2.01352
1.51839
1.03213
0.554887
0.0866855
-0.372521
-0.822849
-1.26447
-1.6976
-2.12247
-2.53935
-2.94852
-3.35027
-3.74488
-4.13266
-4.51389
-4.88887
-5.25787
-5.62118
-5.97906
-6.33178
-6.67958
-7.02272
-7.36143
-7.69592
-8.02643
-8.35316
-8.6763
-8.99605
-9.31259
-9.6261
-9.93674
-10.2447
-10.55
-10.853
-11.1536
-11.4521
-11.7486
-12.0431
-12.3358
-12.6268
-12.9161
-13.2039
-13.4901
-13.7749
-14.0583
-14.3404
-14.6211
-14.9004
-15.1785
-15.4551
-15.7303
-16.004
-16.2761
-16.5464
-16.8149
-17.0813
-17.3453
-17.6068
-17.8654
-18.1206
-18.3721
-18.6193
-18.8617
-19.0986
-19.3294
-19.5532
-19.7693
-19.9768
-20.1747
-20.3622
-20.5384
-20.7024
-20.8534
-20.9908
-21.1141
-21.223
10.7908
10.7876
10.7251
10.5974
10.4142
10.1801
9.89829
9.57319
9.20987
8.81345
8.38893
7.94115
7.47466
6.99365
6.50187
6.00268
5.49901
4.99337
4.48789
3.98436
3.48424
2.98872
2.49872
2.01498
1.53804
1.06828
0.605963
0.151236
-0.295841
-0.735278
-1.16715
-1.59156
-2.00867
-2.41866
-2.82173
-3.21809
-3.60797
-3.99161
-4.36922
-4.74106
-5.10736
-5.46834
-5.82424
-6.17528
-6.52168
-6.86364
-7.20137
-7.53507
-7.86493
-8.19113
-8.51385
-8.83326
-9.14951
-9.46278
-9.7732
-10.0809
-10.386
-10.6887
-10.9891
-11.2873
-11.5834
-11.8774
-12.1695
-12.4599
-12.7484
-13.0353
-13.3205
-13.6041
-13.8861
-14.1667
-14.4457
-14.7231
-14.999
-15.2733
-15.5459
-15.8168
-16.0859
-16.3529
-16.6178
-16.8803
-17.1403
-17.3974
-17.6513
-17.9016
-18.148
-18.3899
-18.6268
-18.8581
-19.0833
-19.3015
-19.5121
-19.7144
-19.9074
-20.0905
-20.2629
-20.4239
-20.5728
-20.7092
-20.8326
-20.9429
10.1681
10.1652
10.1093
9.99505
9.83085
9.62062
9.36687
9.07321
8.74386
8.38314
7.9953
7.58453
7.1548
6.70981
6.25296
5.7873
5.31555
4.84008
4.36295
3.88591
3.41041
2.93769
2.46873
2.00432
1.54511
1.09155
0.644001
0.202708
-0.232178
-0.660578
-1.08247
-1.4979
-1.90693
-2.30966
-2.70623
-3.09679
-3.4815
-3.86053
-4.23408
-4.60232
-4.96544
-5.32363
-5.67709
-6.02599
-6.37053
-6.71087
-7.0472
-7.37968
-7.70848
-8.03375
-8.35566
-8.67435
-8.98996
-9.30264
-9.6125
-9.91968
-10.2243
-10.5264
-10.8263
-11.1238
-11.4192
-11.7126
-12.0039
-12.2933
-12.5809
-12.8666
-13.1506
-13.4329
-13.7134
-13.9923
-14.2694
-14.5449
-14.8186
-15.0904
-15.3605
-15.6285
-15.8945
-16.1583
-16.4197
-16.6784
-16.9344
-17.1873
-17.4368
-17.6825
-17.924
-18.161
-18.3929
-18.6191
-18.8391
-19.0524
-19.2581
-19.4557
-19.6446
-19.8239
-19.9931
-20.1516
-20.2989
-20.4346
-20.5583
-20.6699
9.59754
9.59486
9.54453
9.4417
9.29372
9.1039
8.87423
8.60771
8.30786
7.97833
7.62277
7.24478
6.84783
6.4352
6.00994
5.57483
5.13237
4.68478
4.23401
3.78177
3.32949
2.8784
2.42952
1.98371
1.54164
1.10386
0.670785
0.242747
-0.180029
-0.597387
-1.00924
-1.41553
-1.81629
-2.21153
-2.60134
-2.98579
-3.36501
-3.73911
-4.10823
-4.47251
-4.83208
-5.18712
-5.53775
-5.88414
-6.22644
-6.56479
-6.89935
-7.23025
-7.55763
-7.88164
-8.2024
-8.52004
-8.83469
-9.14646
-9.45546
-9.76182
-10.0656
-10.367
-10.6659
-10.9627
-11.2572
-11.5496
-11.8399
-12.1282
-12.4146
-12.699
-12.9816
-13.2624
-13.5413
-13.8183
-14.0935
-14.3669
-14.6383
-14.9077
-15.1751
-15.4403
-15.7033
-15.9638
-16.2217
-16.4769
-16.729
-16.9779
-17.2232
-17.4645
-17.7016
-17.9339
-18.1612
-18.3827
-18.5982
-18.8069
-19.0083
-19.2019
-19.387
-19.5631
-19.7296
-19.8861
-20.0322
-20.1673
-20.2914
-20.4044
9.07378
9.07131
9.02576
8.9327
8.79862
8.62634
8.41747
8.17447
7.90034
7.59816
7.27106
6.92215
6.55448
6.17093
5.77425
5.36694
4.95131
4.52942
4.10312
3.67402
3.24354
2.81289
2.38311
1.95507
1.52949
1.10697
0.687982
0.272915
-0.137941
-0.544365
-0.946202
-1.34335
-1.73575
-2.12339
-2.50627
-2.88443
-3.25794
-3.62687
-3.9913
-4.35134
-4.70709
-5.05867
-5.40618
-5.74976
-6.08952
-6.42557
-6.75805
-7.08707
-7.41274
-7.73518
-8.0545
-8.37081
-8.68422
-8.99481
-9.3027
-9.60797
-9.91071
-10.211
-10.5089
-10.8046
-11.098
-11.3892
-11.6783
-11.9654
-12.2504
-12.5334
-12.8145
-13.0936
-13.3707
-13.6459
-13.919
-14.1902
-14.4593
-14.7262
-14.9909
-15.2533
-15.5132
-15.7706
-16.0252
-16.2768
-16.5253
-16.7703
-17.0116
-17.2488
-17.4817
-17.7098
-17.9328
-18.1501
-18.3613
-18.566
-18.7636
-18.9535
-19.1354
-19.3088
-19.473
-19.6278
-19.7728
-19.9078
-20.0324
-20.1466
8.5924
8.59012
8.54867
8.46401
8.34192
8.1848
7.99396
7.77146
7.51983
7.24169
6.93975
6.61669
6.27518
5.91778
5.54694
5.16493
4.77385
4.37562
3.97197
3.56443
3.15437
2.74297
2.33126
1.92013
1.51033
1.10249
0.697119
0.29466
-0.104549
-0.500233
-0.892184
-1.28025
-1.66431
-2.0443
-2.42019
-2.79196
-3.15962
-3.52322
-3.88279
-4.2384
-4.59012
-4.93802
-5.28219
-5.62272
-5.95969
-6.29321
-6.62337
-6.95026
-7.27397
-7.5946
-7.91225
-8.22699
-8.53891
-8.84811
-9.15465
-9.45862
-9.76009
-10.0591
-10.3558
-10.6502
-10.9423
-11.2322
-11.5199
-11.8055
-12.0891
-12.3705
-12.6499
-12.9272
-13.2025
-13.4757
-13.7467
-14.0156
-14.2823
-14.5468
-14.8088
-15.0684
-15.3254
-15.5796
-15.831
-16.0792
-16.3241
-16.5655
-16.803
-17.0365
-17.2654
-17.4896
-17.7086
-17.922
-18.1294
-18.3304
-18.5246
-18.7114
-18.8905
-19.0614
-19.2237
-19.3771
-19.5213
-19.6561
-19.7812
-19.8967
8.14954
8.14743
8.10955
8.03215
7.92043
7.77649
7.60136
7.39677
7.16488
6.90795
6.62829
6.32824
6.01015
5.67628
5.32882
4.96981
4.60119
4.22471
3.84199
3.45448
3.06348
2.67015
2.2755
1.88041
1.48564
1.09185
0.699585
0.309311
-0.078587
-0.463793
-0.846052
-1.22516
-1.60097
-1.97337
-2.34226
-2.7076
-3.06936
-3.42754
-3.78215
-4.1332
-4.48074
-4.82481
-5.16547
-5.50277
-5.83679
-6.16759
-6.49523
-6.8198
-7.14136
-7.45998
-7.77575
-8.08872
-8.39898
-8.70658
-9.01159
-9.31408
-9.6141
-9.9117
-10.207
-10.4999
-10.7906
-11.079
-11.3652
-11.6493
-11.9312
-12.2109
-12.4886
-12.764
-13.0373
-13.3085
-13.5774
-13.844
-14.1083
-14.3702
-14.6296
-14.8865
-15.1405
-15.3918
-15.6399
-15.8849
-16.1265
-16.3644
-16.5983
-16.8281
-17.0535
-17.274
-17.4893
-17.6992
-17.9032
-18.1009
-18.2919
-18.4759
-18.6525
-18.8213
-18.982
-19.1342
-19.2778
-19.4125
-19.5382
-19.6549
7.74191
7.73995
7.70516
7.63407
7.53139
7.39893
7.23753
7.04866
6.83416
6.59596
6.33608
6.05656
5.75945
5.44676
5.12045
4.78236
4.43425
4.07775
3.71435
3.34541
2.97219
2.59578
2.21717
1.83724
1.45674
1.07635
0.696628
0.318075
-0.0588976
-0.433938
-0.806756
-1.17711
-1.54481
-1.9097
-2.27166
-2.6306
-2.98646
-3.33919
-3.68878
-4.03521
-4.37848
-4.71863
-5.05566
-5.38962
-5.72054
-6.04848
-6.37346
-6.69556
-7.01481
-7.33128
-7.64502
-7.95607
-8.2645
-8.57035
-8.87368
-9.17453
-9.47296
-9.76899
-10.0627
-10.3541
-10.6431
-10.93
-11.2146
-11.497
-11.7772
-12.0551
-12.3309
-12.6045
-12.8758
-13.1448
-13.4115
-13.6759
-13.9378
-14.1972
-14.454
-14.7081
-14.9593
-15.2076
-15.4527
-15.6946
-15.9329
-16.1675
-16.3981
-16.6245
-16.8464
-17.0636
-17.2756
-17.4822
-17.683
-17.8777
-18.066
-18.2475
-18.4218
-18.5888
-18.748
-18.8992
-19.0423
-19.177
-19.3033
-19.4212
7.36661
7.36478
7.33269
7.26711
7.17233
7.04992
6.90058
6.72553
6.52638
6.30479
6.0625
5.80131
5.52302
5.22941
4.92224
4.60317
4.2738
3.93562
3.59002
3.23829
2.88159
2.52098
2.15742
1.79177
1.42478
1.05712
0.689367
0.322039
-0.0444279
-0.409656
-0.773324
-1.13516
-1.49494
-1.85248
-2.20761
-2.56023
-2.91023
-3.25754
-3.6021
-3.94388
-4.28285
-4.61901
-4.95235
-5.28289
-5.61063
-5.93561
-6.25784
-6.57735
-6.89419
-7.20839
-7.51997
-7.82899
-8.13547
-8.43945
-8.74098
-9.04008
-9.33679
-9.63114
-9.92316
-10.2129
-10.5003
-10.7854
-11.0683
-11.349
-11.6273
-11.9035
-12.1773
-12.4489
-12.7182
-12.9851
-13.2496
-13.5116
-13.7712
-14.0281
-14.2823
-14.5337
-14.7822
-15.0276
-15.2699
-15.5087
-15.7439
-15.9754
-16.2029
-16.4261
-16.6448
-16.8588
-17.0677
-17.2713
-17.4693
-17.6613
-17.8471
-18.0263
-18.1987
-18.364
-18.5219
-18.6723
-18.815
-18.9498
-19.0766
-19.1955
7.02114
7.01943
6.9897
6.92895
6.84108
6.72751
6.58877
6.42593
6.24036
6.03352
5.80691
5.56211
5.30071
5.02431
4.73446
4.43268
4.12041
3.79903
3.46982
3.13398
2.79262
2.44674
2.09727
1.74504
1.39078
1.03517
0.678798
0.32218
-0.034227
-0.390025
-0.744868
-1.09846
-1.45055
-1.80091
-2.14938
-2.49578
-2.84001
-3.18195
-3.52153
-3.85868
-4.19336
-4.52551
-4.85514
-5.18221
-5.50672
-5.82867
-6.14808
-6.46494
-6.77928
-7.09112
-7.40047
-7.70736
-8.0118
-8.31383
-8.61347
-8.91073
-9.20564
-9.49821
-9.78847
-10.0764
-10.3621
-10.6455
-10.9266
-11.2054
-11.4819
-11.7562
-12.0281
-12.2977
-12.5649
-12.8296
-13.0919
-13.3517
-13.6088
-13.8633
-14.115
-14.3638
-14.6096
-14.8523
-15.0917
-15.3277
-15.56
-15.7885
-16.013
-16.2332
-16.449
-16.66
-16.8661
-17.0669
-17.2623
-17.4518
-17.6353
-17.8125
-17.9831
-18.1469
-18.3038
-18.4534
-18.5957
-18.7306
-18.858
-18.9779
6.70329
6.70169
6.67404
6.61753
6.53575
6.42995
6.30058
6.14854
5.97502
5.78129
5.56867
5.33854
5.09233
4.83144
4.55727
4.27119
3.97453
3.66853
3.35439
3.03322
2.70607
2.37389
2.03757
1.69791
1.35564
1.01141
0.66581
0.319372
-0.0274391
-0.374211
-0.720581
-1.06623
-1.41088
-1.75429
-2.09626
-2.43661
-2.77518
-3.11186
-3.44653
-3.7791
-4.1095
-4.43768
-4.76358
-5.08718
-5.40844
-5.72735
-6.04389
-6.35806
-6.66986
-6.97928
-7.28634
-7.59104
-7.89338
-8.19339
-8.49106
-8.78642
-9.07946
-9.3702
-9.65865
-9.9448
-10.2287
-10.5102
-10.7895
-11.0665
-11.3411
-11.6134
-11.8834
-12.1509
-12.416
-12.6787
-12.9387
-13.1962
-13.4511
-13.7032
-13.9524
-14.1987
-14.4419
-14.6819
-14.9186
-15.1518
-15.3813
-15.607
-15.8287
-16.0461
-16.2591
-16.4675
-16.6709
-16.8692
-17.0621
-17.2493
-17.4308
-17.6061
-17.7751
-17.9377
-18.0935
-18.2425
-18.3845
-18.5195
-18.6474
-18.7681
6.41114
6.40964
6.38381
6.33104
6.25463
6.1557
6.03461
5.89214
5.72933
5.54728
5.34716
5.13019
4.89762
4.65072
4.39075
4.11894
3.83649
3.54457
3.24426
2.93662
2.62261
2.30315
1.97908
1.65117
1.32013
0.986611
0.651189
0.314396
-0.0232965
-0.361464
-0.699729
-1.03776
-1.37525
-1.71196
-2.04764
-2.3821
-2.71517
-3.0467
-3.37656
-3.70463
-4.03082
-4.35507
-4.67728
-4.99742
-5.31544
-5.6313
-5.94497
-6.25643
-6.56565
-6.87264
-7.17737
-7.47984
-7.78005
-8.07799
-8.37366
-8.66707
-8.9582
-9.24706
-9.53364
-9.81795
-10.1
-10.3797
-10.6571
-10.9322
-11.2049
-11.4753
-11.7432
-12.0088
-12.2718
-12.5323
-12.7902
-13.0455
-13.298
-13.5478
-13.7946
-14.0384
-14.2791
-14.5166
-14.7507
-14.9812
-15.2081
-15.4312
-15.6502
-15.865
-16.0754
-16.2812
-16.4821
-16.678
-16.8687
-17.0539
-17.2335
-17.4071
-17.5747
-17.736
-17.891
-18.0394
-18.1812
-18.3163
-18.4446
-18.5661
6.14298
6.14156
6.11735
6.06787
5.99621
5.90336
5.78962
5.65565
5.50236
5.33073
5.14179
4.93661
4.71632
4.48204
4.23491
3.97605
3.70656
3.4275
3.13988
2.84468
2.54281
2.23512
1.92244
1.60548
1.28495
0.961478
0.635634
0.307945
-0.021112
-0.351107
-0.681653
-1.0124
-1.34304
-1.6733
-2.00293
-2.33171
-2.65944
-2.98597
-3.31114
-3.63481
-3.95689
-4.27726
-4.59585
-4.91258
-5.22738
-5.54021
-5.85102
-6.15976
-6.46642
-6.77095
-7.07334
-7.37357
-7.67162
-7.96747
-8.26112
-8.55255
-8.84174
-9.1287
-9.4134
-9.69583
-9.97598
-10.2538
-10.5294
-10.8025
-11.0734
-11.3418
-11.6078
-11.8713
-12.1323
-12.3907
-12.6464
-12.8995
-13.1498
-13.3972
-13.6417
-13.8832
-14.1215
-14.3565
-14.5881
-14.8161
-15.0405
-15.261
-15.4775
-15.6899
-15.8978
-16.1012
-16.2999
-16.4936
-16.6822
-16.8655
-17.0433
-17.2154
-17.3817
-17.542
-17.6961
-17.844
-17.9855
-18.1207
-18.2494
-18.3717
5.8973
5.89596
5.87318
5.82662
5.75916
5.6717
5.56447
5.43806
5.29325
5.13093
4.95199
4.75739
4.54814
4.32524
4.08974
3.84263
3.58493
3.3176
3.0416
2.75782
2.46713
2.17033
1.86819
1.56143
1.2507
0.93662
0.61976
0.300637
-0.020272
-0.342534
-0.665756
-0.989579
-1.31368
-1.63777
-1.96159
-2.2849
-2.6075
-2.92919
-3.24981
-3.56922
-3.88728
-4.20387
-4.51891
-4.83228
-5.14392
-5.45376
-5.76174
-6.0678
-6.3719
-6.67399
-6.97405
-7.27203
-7.56791
-7.86167
-8.15328