/*--------------------------------*- C++ -*----------------------------------*\
| =========                 |                                                 |
| \\      /  F ield         | OpenFOAM: The Open Source CFD Toolbox           |
|  \\    /   O peration     | Version:  2406                                  |
|   \\  /    A nd           | Website:  www.openfoam.com                      |
|    \\/     M anipulation  |                                                 |
\*---------------------------------------------------------------------------*/
FoamFile
{
    version     2.0;
    format      ascii;
    arch        "LSB;label=32;scalar=64";
    class       surfaceScalarField;
    location    "600";
    object      phi;
}
// * * * * * * * * * * * * * * * * * * * * * * * * * * * * * * * * * * * * * //

dimensions      [0 3 -1 0 0 0 0];

oriented        oriented;

internalField   nonuniform List<scalar> 
299000
(
0.0796643
0.0203357
0.0586791
0.0209852
0.0442545
0.0144245
0.0348017
0.00945284
0.0284997
0.00630203
0.0241893
0.00431036
0.0211375
0.00305179
0.0188879
0.00224961
0.0171639
0.00172406
0.0157976
0.0013663
0.0146846
0.00111296
0.0137576
0.000926958
0.0129716
0.000786016
0.0122953
0.000676294
0.0117064
0.000588916
0.0111884
0.000517996
0.0107289
0.000459508
0.0103183
0.000410612
0.00994904
0.000369253
0.00961513
0.000333913
0.00931169
0.000303443
0.00903472
0.000276962
0.00878094
0.000253784
0.00854757
0.000233365
0.0083323
0.000215272
0.00813315
0.000199154
0.00794842
0.000184727
0.00777667
0.000171754
0.00761663
0.00016004
0.0074672
0.000149423
0.00732744
0.000139766
0.00719648
0.000130952
0.0070736
0.000122883
0.00695813
0.000115474
0.00684947
0.000108653
0.00674712
0.000102356
0.00665059
9.65282e-05
0.00655947
9.11226e-05
0.00647337
8.60971e-05
0.00639195
8.14149e-05
0.00631491
7.70436e-05
0.00624196
7.29543e-05
0.00617283
6.91215e-05
0.00610731
6.55224e-05
0.00604518
6.21364e-05
0.00598623
5.89453e-05
0.0059303
5.59324e-05
0.00587721
5.30829e-05
0.00582683
5.03832e-05
0.00577901
4.7821e-05
0.00573363
4.5385e-05
0.00569056
4.3065e-05
0.00564971
4.08515e-05
0.00561097
3.87358e-05
0.00557426
3.67098e-05
0.0055395
3.47662e-05
0.0055066
3.28978e-05
0.0054755
3.10982e-05
0.00544614
2.93612e-05
0.00541846
2.76811e-05
0.00539241
2.60522e-05
0.00536794
2.44693e-05
0.00534501
2.29272e-05
0.00532359
2.14211e-05
0.00530364
1.99459e-05
0.00528514
1.84968e-05
0.00526808
1.70692e-05
0.00525242
1.56579e-05
0.00523816
1.42582e-05
0.00522529
1.28647e-05
0.00521382
1.14722e-05
0.00520375
1.00749e-05
0.00519508
8.66665e-06
0.00518784
7.24074e-06
0.00518205
5.78979e-06
0.00517774
4.30555e-06
0.00517496
2.77866e-06
0.00517377
1.1984e-06
0.00517421
-4.47703e-07
0.00517639
-2.17437e-06
0.00518039
-3.99919e-06
0.00518633
-5.9434e-06
0.00519436
-8.03314e-06
0.00520466
-1.03011e-05
0.00521745
-1.27892e-05
0.00523301
-1.55525e-05
0.00525167
-1.86656e-05
0.00527391
-2.22351e-05
0.00530033
-2.64208e-05
0.0053318
-3.14777e-05
0.00536964
-3.784e-05
0.00541594
-4.62915e-05
0.00547425
-5.8319e-05
0.00555112
-7.68612e-05
0.00565908
-0.000107961
0.00582342
-0.000164345
0.0060957
-0.000272278
0.00658251
-0.000486816
0.00754885
-0.000966341
-0.00228731
0.00983616
0.105208
0.0151279
0.100188
0.0260051
0.0901925
0.0244199
0.07975
0.0198954
0.0705674
0.0154846
0.0629855
0.0118923
0.0568429
0.00919443
0.0518623
0.00723022
0.0477855
0.00580082
0.044405
0.00474681
0.0415629
0.00395501
0.039142
0.00334793
0.037055
0.00287303
0.0352367
0.00249455
0.0336378
0.0021878
0.0322203
0.00193547
0.0309547
0.00172516
0.0298174
0.00154786
0.0287899
0.00139683
0.0278568
0.00126702
0.0270057
0.00115452
0.0262263
0.00105633
0.0255101
0.000970043
0.0248497
0.000893769
0.024239
0.000825975
0.0236727
0.000765415
0.0231464
0.000711067
0.022656
0.000662085
0.0221983
0.000617766
0.0217702
0.000577518
0.0213691
0.000540841
0.0209928
0.000507313
0.0206391
0.00047657
0.0203062
0.000448302
0.0199927
0.00042224
0.0196969
0.000398151
0.0194176
0.000375833
0.0191536
0.000355108
0.0189038
0.000335821
0.0186674
0.000317835
0.0184434
0.000301027
0.0182311
0.000285291
0.0180297
0.000270531
0.0178386
0.00025666
0.0176571
0.000243603
0.0174847
0.000231289
0.017321
0.000219657
0.0171655
0.00020865
0.0170176
0.000198218
0.0168771
0.000188312
0.0167436
0.000178892
0.0166168
0.000169918
0.0164963
0.000161354
0.0163818
0.000153167
0.0162732
0.000145326
0.0161702
0.000137805
0.0160725
0.000130575
0.01598
0.000123612
0.0158925
0.000116892
0.0158097
0.000110395
0.0157317
0.000104098
0.0156582
9.79818e-05
0.0155891
9.20268e-05
0.0155243
8.62142e-05
0.0154637
8.05256e-05
0.0154073
7.49428e-05
0.0153549
6.94477e-05
0.0153065
6.40219e-05
0.0152621
5.86469e-05
0.0152217
5.33033e-05
0.0151852
4.79711e-05
0.0151526
4.2629e-05
0.015124
3.72543e-05
0.0150995
3.18223e-05
0.015079
2.63057e-05
0.0150626
2.06743e-05
0.0150505
1.48936e-05
0.0150427
8.92443e-06
0.0150396
2.72108e-06
0.0150412
-3.77018e-06
0.0150478
-1.06136e-05
0.0150597
-1.78872e-05
0.0150774
-2.56868e-05
0.0151012
-3.41332e-05
0.0151318
-4.3381e-05
0.0151699
-5.36339e-05
0.0152164
-6.51679e-05
0.0152725
-7.83712e-05
0.0153399
-9.38126e-05
0.0154208
-0.000112363
0.0155184
-0.000135419
0.0156374
-0.000165316
0.0157852
-0.000206102
0.0159733
-0.000265005
0.0162206
-0.000355206
0.0165571
-0.00050084
0.0170302
-0.000745396
0.0177113
-0.00116796
0.0186651
-0.00192015
-0.00322413
0.019602
0.105142
0.00998558
0.10894
0.0222074
0.107707
0.0256527
0.103023
0.0245792
0.0967855
0.0217225
0.090229
0.0184487
0.0840033
0.0154202
0.0783704
0.0128631
0.0733857
0.0107856
0.0690116
0.00912084
0.0651777
0.00778889
0.0618081
0.00671755
0.058833
0.00584818
0.0561921
0.00513544
0.053835
0.00454489
0.0517199
0.00405052
0.0498125
0.00363264
0.0480841
0.00327621
0.0465113
0.00296967
0.0450743
0.00270404
0.0437565
0.00247224
0.0425442
0.00226868
0.0414254
0.00208887
0.04039
0.00192918
0.0394293
0.00178666
0.0385358
0.00165889
0.037703
0.00154384
0.0369253
0.00143984
0.0361976
0.00134548
0.0355155
0.00125959
0.0348752
0.00118114
0.0342732
0.00110927
0.0337065
0.00104325
0.0331724
0.000982439
0.0326684
0.000926281
0.0321922
0.000874297
0.031742
0.000826066
0.0313159
0.000781221
0.0309123
0.000739436
0.0305297
0.000700424
0.0301668
0.000663932
0.0298223
0.000629733
0.0294952
0.000597624
0.0291845
0.000567426
0.0288891
0.000538976
0.0286083
0.000512127
0.0283412
0.000486747
0.0280871
0.000462717
0.0278454
0.000439927
0.0276154
0.000418279
0.0273966
0.000397682
0.0271885
0.000378052
0.0269905
0.000359314
0.0268023
0.000341396
0.0266234
0.000324233
0.0264534
0.000307765
0.0262921
0.000291934
0.026139
0.000276687
0.0259939
0.000261976
0.0258566
0.000247751
0.0257267
0.000233968
0.0256041
0.000220585
0.0254886
0.000207559
0.0253799
0.00019485
0.025278
0.000182419
0.0251827
0.000170228
0.0250939
0.000158236
0.0250116
0.000146406
0.0249355
0.000134697
0.0248657
0.00012307
0.0248022
0.000111481
0.024745
9.9886e-05
0.024694
8.82368e-05
0.0246493
7.64818e-05
0.0246111
6.4564e-05
0.0245793
5.24203e-05
0.0245542
3.99794e-05
0.024536
2.71597e-05
0.0245249
1.38671e-05
0.0245211
-9.41928e-09
0.0245251
-1.4602e-05
0.0245373
-3.00705e-05
0.0245582
-4.66117e-05
0.0245885
-6.4472e-05
0.0246291
-8.39664e-05
0.024681
-0.000105506
0.0247455
-0.000129645
0.0248242
-0.000157146
0.0249195
-0.000189101
0.0250343
-0.000227124
0.0251726
-0.00027368
0.0253399
-0.000332648
0.0255441
-0.000410288
0.0257959
-0.000516864
0.02611
-0.000669298
0.0265044
-0.00089518
0.026997
-0.00123801
0.0275917
-0.00176269
0.0282255
-0.00255396
-0.00366062
0.028662
0.103312
0.00667351
0.108501
0.0170184
0.111574
0.0225798
0.111772
0.0243816
0.109656
0.023838
0.106064
0.022041
0.10173
0.0197541
0.0971653
0.0174276
0.0926741
0.0152768
0.088415
0.01338
0.0844573
0.0117466
0.0808193
0.0103555
0.0774928
0.00917473
0.0744567
0.00817148
0.0716856
0.00731604
0.069153
0.00658307
0.0668341
0.00595155
0.064706
0.0054043
0.0627483
0.00492733
0.0609431
0.00450931
0.0592743
0.00414098
0.0577282
0.00381479
0.0562925
0.00352455
0.0549566
0.00326513
0.0537109
0.00303228
0.0525474
0.00282246
0.0514585
0.00263267
0.050438
0.00246042
0.0494799
0.00230356
0.0485792
0.00216028
0.0477313
0.00202902
0.0469321
0.00190845
0.046178
0.00179739
0.0454656
0.00169486
0.0447919
0.00159997
0.0441542
0.00151195
0.0435501
0.00143014
0.0429774
0.00135394
0.042434
0.00128282
0.0419181
0.00121633
0.041428
0.00115404
0.0409622
0.00109559
0.0405191
0.00104065
0.0400976
0.000988923
0.0396965
0.000940136
0.0393145
0.00089405
0.0389508
0.000850447
0.0386044
0.000809129
0.0382744
0.000769914
0.0379601
0.000732637
0.0376606
0.000697148
0.0373754
0.000663306
0.0371037
0.000630984
0.036845
0.000600064
0.0365988
0.000570436
0.0363646
0.000541998
0.0361419
0.000514654
0.0359302
0.000488316
0.0357293
0.000462898
0.0355388
0.000438321
0.0353582
0.000414509
0.0351874
0.00039139
0.0350261
0.000368893
0.034874
0.000346951
0.0347309
0.000325497
0.0345967
0.000304467
0.0344711
0.000283794
0.0343541
0.000263414
0.0342455
0.00024326
0.0341453
0.000223265
0.0340535
0.000203358
0.0339699
0.000183464
0.0338946
0.000163504
0.0338277
0.000143392
0.0337692
0.000123036
0.0337193
0.000102332
0.0336781
8.11623e-05
0.0336459
5.9396e-05
0.0336229
3.68798e-05
0.0336094
1.34348e-05
0.033606
-1.11511e-05
0.033613
-3.71335e-05
0.0336313
-6.48251e-05
0.0336614
-9.46148e-05
0.0337044
-0.000126996
0.0337615
-0.000162605
0.0338342
-0.000202284
0.0339242
-0.000247176
0.034034
-0.000298863
0.0341664
-0.000359605
0.0343255
-0.000432698
0.0345159
-0.000523049
0.0347436
-0.000638073
0.0350158
-0.00078903
0.0353394
-0.000992881
0.0357187
-0.00127449
0.0361489
-0.00166817
0.0366021
-0.0022159
0.0370029
-0.00295484
-0.00387471
0.037217
0.102077
0.00459605
0.106348
0.0127483
0.110418
0.0185092
0.113046
0.0217542
0.113911
0.0229723
0.113195
0.0227569
0.111291
0.0216583
0.108611
0.0201081
0.105492
0.0183951
0.102181
0.016691
0.0988408
0.015087
0.0955727
0.0136236
0.0924353
0.0123121
0.089459
0.0111478
0.0866559
0.0101191
0.0840274
0.00921152
0.0815687
0.00841024
0.0792715
0.00770154
0.0771257
0.00707309
0.075121
0.00651409
0.0732467
0.00601524
0.0714929
0.00556857
0.0698502
0.00516726
0.0683098
0.0048055
0.0668638
0.00447834
0.0655047
0.00418155
0.0642259
0.0039115
0.0630212
0.00366506
0.0618852
0.00343955
0.0608129
0.00323266
0.0597995
0.00304236
0.0588411
0.00286691
0.0579337
0.00270477
0.0570739
0.0025546
0.0562587
0.00241524
0.055485
0.00228563
0.0547503
0.00216486
0.0540521
0.00205212
0.0533882
0.00194669
0.0527566
0.00184791
0.0521555
0.00175522
0.051583
0.00166809
0.0510375
0.00158606
0.0505178
0.00150872
0.0500222
0.00143567
0.0495497
0.00136658
0.049099
0.00130114
0.0486691
0.00123905
0.0482589
0.00118007
0.0478676
0.00112394
0.0474943
0.00107047
0.0471382
0.00101943
0.0467985
0.000970654
0.0464746
0.000923961
0.0461658
0.000879194
0.0458716
0.000836202
0.0455914
0.000794848
0.0453248
0.000754999
0.0450711
0.000716533
0.0448301
0.000679332
0.0446013
0.000643285
0.0443844
0.000608285
0.0441791
0.00057423
0.043985
0.000541019
0.043802
0.000508556
0.0436297
0.000476744
0.043468
0.000445488
0.0433167
0.000414693
0.0431757
0.00038426
0.0430449
0.000354092
0.0429242
0.000324085
0.0428135
0.000294131
0.0427129
0.000264116
0.0426224
0.000233917
0.042542
0.000203399
0.0424719
0.000172414
0.0424123
0.000140797
0.0423633
0.000108359
0.0423253
7.48867e-05
0.0422986
4.01283e-05
0.0422837
3.78839e-06
0.042281
-3.44863e-05
0.0422913
-7.51247e-05
0.0423154
-0.000118655
0.0423541
-0.00016574
0.0424087
-0.000217223
0.0424806
-0.000274197
0.0425716
-0.00033811
0.0426836
-0.000410915
0.0428193
-0.000495291
0.0429816
-0.000594981
0.0431738
-0.000715274
0.0433994
-0.00086368
0.0436612
-0.00105082
0.0439597
-0.0012914
0.0442902
-0.00160494
0.0446371
-0.00201508
0.0449666
-0.00254541
0.0452195
-0.00320776
-0.00397686
0.0453217
0.101292
0.00330388
0.104405
0.00963555
0.108104
0.0148101
0.111405
0.0184533
0.113751
0.0206259
0.114945
0.021563
0.11504
0.0215641
0.11422
0.0209276
0.112712
0.0199033
0.110726
0.0186769
0.108437
0.0173758
0.10598
0.0160812
0.103451
0.0148408
0.100919
0.0136797
0.0984298
0.0126085
0.0960124
0.011629
0.0936845
0.0107381
0.0914559
0.00993012
0.0893309
0.00919809
0.0873101
0.00853487
0.0853918
0.00793351
0.0835729
0.00738754
0.0818491
0.00689101
0.080216
0.00643859
0.0786688
0.00602554
0.0772027
0.00564764
0.0758131
0.00530116
0.0744953
0.00498282
0.0732451
0.00468971
0.0720585
0.00441928
0.0709316
0.00416927
0.0698608
0.00393769
0.0688428
0.00372277
0.0678745
0.00352294
0.0669529
0.00333681
0.0660754
0.00316314
0.0652394
0.00300081
0.0644427
0.00284885
0.0636831
0.00270635
0.0629584
0.00257252
0.062267
0.00244665
0.061607
0.00232808
0.0609769
0.00221622
0.060375
0.00211055
0.0598001
0.00201059
0.0592508
0.00191588
0.0587259
0.00182603
0.0582243
0.00174068
0.0577449
0.00165948
0.0572867
0.00158213
0.0568488
0.00150833
0.0564304
0.00143784
0.0560307
0.00137039
0.0556489
0.00130577
0.0552843
0.00124377
0.0549363
0.00118418
0.0546044
0.00112682
0.0542878
0.00107153
0.0539862
0.00101812
0.0536991
0.00096645
0.053426
0.000916368
0.0531666
0.000867731
0.0529204
0.0008204
0.0526872
0.000774242
0.0524666
0.000729127
0.0522584
0.000684924
0.0520624
0.000641507
0.0518784
0.000598748
0.0517061
0.000556516
0.0515455
0.00051468
0.0513965
0.000473101
0.051259
0.000431637
0.051133
0.000390135
0.0510185
0.000348434
0.0509155
0.000306357
0.0508242
0.00026371
0.0507447
0.000220278
0.0506773
0.000175818
0.0506221
0.000130053
0.0505796
8.26633e-05
0.0505501
3.3274e-05
0.0505342
-1.85588e-05
0.0505324
-7.33686e-05
0.0505455
-0.000131805
0.0505745
-0.000194671
0.0506202
-0.000262971
0.050684
-0.000337983
0.0507673
-0.000421354
0.0508716
-0.000515242
0.0509988
-0.000622499
0.0511508
-0.000746942
0.0513292
-0.000893697
0.0515351
-0.00106963
0.0517681
-0.00128382
0.0520246
-0.00154786
0.0522954
-0.00187573
0.0525625
-0.00228224
0.0527961
-0.002779
0.0529545
-0.00336611
-0.00401862
0.0529962
0.100819
0.00248536
0.103016
0.00743852
0.105987
0.0118386
0.109099
0.0153412
0.111866
0.0178594
0.113984
0.0194446
0.115325
0.0202234
0.115891
0.0203615
0.115766
0.0200282
0.11507
0.0193728
0.11393
0.0185161
0.112462
0.0175492
0.110765
0.0165372
0.108921
0.0155244
0.10699
0.0145392
0.10502
0.0135986
0.103046
0.0127118
0.101094
0.0118828
0.0991796
0.0111122
0.0973162
0.0103983
0.0955112
0.0097385
0.0937694
0.0091293
0.0920934
0.00856703
0.090484
0.008048
0.0889409
0.0075686
0.0874631
0.00712543
0.086049
0.00671533
0.0846964
0.00633536
0.0834033
0.00598286
0.0821671
0.0056554
0.0809857
0.00535077
0.0798564
0.00506697
0.0787769
0.00480221
0.077745
0.00455485
0.0767584
0.00432342
0.075815
0.0041066
0.0749126
0.00390318
0.0740494
0.00371206
0.0732235
0.00353228
0.0724331
0.00336291
0.0716766
0.00320316
0.0709523
0.00305228
0.070259
0.0029096
0.069595
0.0027745
0.0689592
0.0026464
0.0683503
0.00252481
0.0677671
0.00240923
0.0672085
0.00229924
0.0666736
0.00219444
0.0661612
0.00209444
0.0656707
0.0019989
0.065201
0.00190751
0.0647514
0.00181997
0.0643212
0.001736
0.0639096
0.00165534
0.0635161
0.00157775
0.0631399
0.001503
0.0627805
0.00143087
0.0624375
0.00136116
0.0621103
0.00129368
0.0617984
0.00122824
0.0615015
0.00116465
0.0612191
0.00110276
0.060951
0.00104239
0.0606967
0.000983368
0.0604561
0.000925545
0.0602289
0.000868756
0.0600148
0.000812841
0.0598137
0.000757636
0.0596254
0.000702976
0.0594498
0.000648689
0.0592868
0.000594597
0.0591364
0.00054051
0.0589986
0.000486228
0.0588735
0.000431534
0.058761
0.000376189
0.0586613
0.00031993
0.0585747
0.000262465
0.0585013
0.000203458
0.0584414
0.000142528
0.0583955
7.9231e-05
0.0583639
1.30465e-05
0.0583471
-5.66437e-05
0.0583459
-0.000130583
0.0583609
-0.000209674
0.058393
-0.000295029
0.058443
-0.00038803
0.0585121
-0.000490413
0.0586012
-0.000604381
0.0587115
-0.000732749
0.0588436
-0.000879124
0.0589981
-0.00104812
0.059174
-0.00124557
0.0593689
-0.00147871
0.0595771
-0.00175609
0.0597884
-0.00208701
0.0599862
-0.00247999
0.0601468
-0.00293961
0.060242
-0.00346129
-0.00402458
0.0602479
0.100541
0.00194455
0.102093
0.00588647
0.104369
0.00956203
0.106997
0.0127134
0.109631
0.015226
0.111998
0.0170772
0.11392
0.0183019
0.115306
0.0189755
0.116139
0.0191943
0.116454
0.0190581
0.116311
0.0186591
0.115784
0.0180765
0.114947
0.0173744
0.113869
0.0166025
0.11261
0.0157978
0.111222
0.0149869
0.109745
0.0141882
0.108214
0.0134139
0.106655
0.0126717
0.105087
0.0119658
0.103527
0.0112983
0.101987
0.0106697
0.100475
0.0100792
0.0989971
0.00952575
0.0975583
0.00900745
0.0961613
0.00852241
0.094808
0.00806858
0.0934995
0.00764389
0.092236
0.00724635
0.0910174
0.00687401
0.0898432
0.00652503
0.0887124
0.0061977
0.0876242
0.00589041
0.0865774
0.00560167
0.0855707
0.00533009
0.0846029
0.00507439
0.0836727
0.00483341
0.0827787
0.00460606
0.0819197
0.00439133
0.0810942
0.00418833
0.0803012
0.00399619
0.0795394
0.00381415
0.0788075
0.00364148
0.0781044
0.00347753
0.0774292
0.00332168
0.0767806
0.00317338
0.0761577
0.00303209
0.0755596
0.00289735
0.0749854
0.00276869
0.0744341
0.00264571
0.073905
0.002528
0.0733973
0.00241522
0.0729102
0.00230702
0.0724432
0.00220308
0.0719954
0.00210311
0.0715663
0.00200682
0.0711554
0.00191395
0.070762
0.00182424
0.0703857
0.00173746
0.070026
0.00165339
0.0696824
0.00157179
0.0693546
0.00149246
0.0690422
0.00141519
0.0687448
0.00133979
0.0684621
0.00126606
0.0681939
0.0011938
0.0679398
0.00112284
0.0676996
0.00105296
0.0674733
0.00098399
0.0672606
0.00091572
0.0670613
0.000847949
0.0668754
0.000780465
0.0667029
0.000713044
0.0665437
0.00064545
0.0663978
0.000577428
0.0662653
0.000508698
0.0661462
0.000438958
0.0660408
0.000367866
0.0659492
0.000295041
0.0658717
0.000220049
0.0658086
0.000142391
0.0657601
6.14887e-05
0.0657268
-2.33383e-05
0.0657091
-0.000112894
0.0657076
-0.000208141
0.0657228
-0.000310239
0.0657554
-0.0004206
0.0658059
-0.000540952
0.065875
-0.000673421
0.0659628
-0.000820626
0.0660695
-0.00098579
0.0661942
-0.00117284
0.0663351
-0.00138649
0.0664886
-0.00163219
0.0666484
-0.00191589
0.0668048
-0.0022434
0.0669439
-0.0026191
0.067048
-0.00304372
0.0670981
-0.00351136
-0.00400624
0.0670798
0.100374
0.00157021
0.101489
0.00477162
0.103211
0.00784062
0.105327
0.0105969
0.107614
0.0129392
0.109868
0.0148233
0.111925
0.0162445
0.113672
0.0172283
0.115045
0.0178219
0.11602
0.0180832
0.116605
0.0180733
0.116831
0.0178507
0.116738
0.0174678
0.116371
0.0169695
0.115776
0.0163928
0.114996
0.015767
0.114069
0.0151148
0.113029
0.0144534
0.111906
0.0137953
0.110722
0.0131495
0.109498
0.0125222
0.10825
0.0119175
0.106992
0.0113379
0.105733
0.0107847
0.104482
0.0102583
0.103246
0.00975867
0.102029
0.00928511
0.100836
0.00883681
0.0996697
0.00841274
0.0985319
0.00801176
0.0974243
0.00763267
0.0963477
0.00727426
0.0953028
0.00693532
0.0942898
0.0066147
0.0933086
0.00631126
0.092359
0.00602393
0.0914408
0.0057517
0.0905532
0.00549359
0.0896959
0.0052487
0.088868
0.00501618
0.088069
0.00479523
0.087298
0.00458511
0.0865543
0.00438512
0.0858373
0.00419459
0.085146
0.00401293
0.0844798
0.00383957
0.083838
0.00367396
0.0832197
0.00351561
0.0826243
0.00336406
0.0820512
0.00321886
0.0814996
0.0030796
0.0809689
0.0029459
0.0804586
0.00281739
0.0799679
0.00269372
0.0794964
0.00257458
0.0790436
0.00245966
0.0786089
0.00234866
0.0781918
0.0022413
0.0777919
0.00213733
0.0774089
0.00203647
0.0770422
0.00193849
0.0766915
0.00184315
0.0763564
0.00175022
0.0760367
0.00165947
0.0757321
0.00157069
0.0754423
0.00148364
0.075167
0.00139812
0.0749061
0.0013139
0.0746593
0.00123077
0.0744265
0.00114849
0.0742076
0.00106684
0.0740025
0.000985568
0.0738111
0.000904427
0.0736334
0.000823147
0.0734694
0.000741439
0.0733191
0.000658991
0.0731826
0.000575463
0.07306
0.000490478
0.0729514
0.000403617
0.0728571
0.000314405
0.0727772
0.000222304
0.072712
0.000126697
0.0726617
2.68684e-05
0.0726269
-7.80169e-05
0.0726077
-0.000188939
0.0726045
-0.000307059
0.0726176
-0.000433754
0.0726474
-0.00057067
0.0726937
-0.000719767
0.0727565
-0.000883381
0.0728349
-0.00106427
0.0729277
-0.00126563
0.0730323
-0.00149111
0.0731448
-0.00174464
0.0732591
-0.00203015
0.0733666
-0.00235098
0.0734565
-0.00270894
0.0735156
-0.00310283
0.0735311
-0.00352683
-0.00396898
0.0734938
0.10027
0.00129999
0.10109
0.00395159
0.102397
0.00653342
0.104073
0.0089215
0.105976
0.0110361
0.107966
0.0128329
0.109918
0.0142933
0.111726
0.0154198
0.113317
0.0162314
0.114642
0.0167584
0.115678
0.0170369
0.116423
0.0171057
0.116888
0.0170028
0.117094
0.0167633
0.117068
0.0164187
0.116839
0.0159961
0.116436
0.015518
0.115887
0.0150028
0.115217
0.0144654
0.114449
0.0139174
0.113603
0.0133676
0.112698
0.0128229
0.111748
0.0122883
0.110765
0.0117672
0.109761
0.0112622
0.108745
0.0107749
0.107724
0.0103062
0.106704
0.00985662
0.105691
0.00942623
0.104688
0.00901481
0.103698
0.00862197
0.102725
0.00824717
0.101771
0.00788977
0.100837
0.00754907
0.0999235
0.00722434
0.0990326
0.00691483
0.0981645
0.00661979
0.0973196
0.00633848
0.0964981
0.00607017
0.0957002
0.00581415
0.0949256
0.00556976
0.0941744
0.00533635
0.0934462
0.00511328
0.0927408
0.00489998
0.0920579
0.00469589
0.091397
0.00450045
0.0907578
0.00431318
0.0901398
0.00413359
0.0895426
0.00396123
0.0889658
0.00379566
0.0884089
0.00363647
0.0878715
0.00348328
0.0873532
0.00333572
0.0868535
0.00319343
0.086372
0.00305608
0.0859083
0.00292334
0.0854621
0.00279493
0.0850328
0.00267053
0.0846203
0.00254986
0.0842241
0.00243266
0.0838439
0.00231867
0.0834795
0.00220762
0.0831304
0.00209926
0.0827966
0.00199335
0.0824776
0.00188965
0.0821733
0.00178792
0.0818835
0.00168791
0.081608
0.0015894
0.0813467
0.00149212
0.0810993
0.00139584
0.0808659
0.00130029
0.0806462
0.00120522
0.0804403
0.00111034
0.0802481
0.00101536
0.0800696
0.00091996
0.0799048
0.000823806
0.0797537
0.00072653
0.0796165
0.000627726
0.0794931
0.000526948
0.0793838
0.000423696
0.0792887
0.000317408
0.079208
0.000207447
0.0791418
9.30857e-05
0.0790903
-2.65131e-05
0.0790536
-0.000152315
0.079032
-0.000285438
0.0790254
-0.000427183
0.0790338
-0.00057906
0.0790569
-0.000742816
0.079094
-0.000920461
0.079144
-0.00111427
0.0792051
-0.00132677
0.0792747
-0.00156067
0.0793487
-0.00181868
0.0794218
-0.00210324
0.0794869
-0.00241605
0.0795353
-0.00275739
0.0795577
-0.00312521
0.0795451
-0.00351427
-0.0039155
0.0794916
0.100202
0.0010977
0.100821
0.00333274
0.101827
0.00552787
0.103151
0.00759705
0.104707
0.00947993
0.106402
0.0111386
0.108143
0.012552
0.109849
0.0137133
0.111453
0.0146278
0.112902
0.0153094
0.114161
0.0157781
0.115209
0.0160576
0.116039
0.0161731
0.116652
0.0161497
0.117059
0.0160117
0.117274
0.0157809
0.117315
0.0154772
0.117201
0.0151175
0.116949
0.0147165
0.116581
0.0142863
0.116111
0.013837
0.115558
0.0133767
0.114934
0.0129119
0.114253
0.0124478
0.113527
0.0119884
0.112765
0.0115366
0.111977
0.0110948
0.111169
0.0106646
0.110348
0.0102472
0.109519
0.00984323
0.108688
0.00945317
0.107858
0.00907719
0.107033
0.00871529
0.106214
0.00836732
0.105406
0.00803299
0.104609
0.00771198
0.103824
0.00740386
0.103055
0.00710821
0.1023
0.00682454
0.101562
0.00655238
0.100841
0.00629122
0.100136
0.00604058
0.0994498
0.00579996
0.0987809
0.0055689
0.0981298
0.00534691
0.0974968
0.00513354
0.0968816
0.00492835
0.0962843
0.00473092
0.0957046
0.00454083
0.0951426
0.00435769
0.094598
0.00418111
0.0940705
0.00401073
0.0935601
0.00384619
0.0930663
0.00368715
0.0925891
0.00353329
0.0921282
0.0033843
0.0916832
0.00323985
0.0912541
0.00309967
0.0908405
0.00296346
0.0904422
0.00283095
0.090059
0.00270187
0.0896907
0.00257594
0.089337
0.00245292
0.0889978
0.00233254
0.088673
0.00221454
0.0883622
0.00209869
0.0880654
0.00198471
0.0877824
0.00187236
0.0875132
0.00176137
0.0872575
0.00165148
0.0870154
0.00154242
0.0867867
0.0014339
0.0865714
0.00132562
0.0863695
0.00121727
0.086181
0.00110853
0.0860058
0.000999015
0.0858439
0.000888357
0.0856955
0.000776131
0.0855606
0.000661874
0.0854392
0.000545072
0.0853315
0.000425156
0.0852374
0.000301487
0.0851572
0.000173345
0.0850907
3.9916e-05
0.0850381
-9.97242e-05
0.0849993
-0.000246625
0.0849741
-0.000401976
0.0849622
-0.000567125
0.084963
-0.000743586
0.0849755
-0.000933038
0.0849986
-0.00113731
0.0850301
-0.00135832
0.0850675
-0.00159802
0.085107
-0.00185819
0.085144
-0.00214022
0.0851727
-0.00244475
0.0851865
-0.00277119
0.0851785
-0.00311722
0.0851425
-0.00347832
-0.00384752
0.0850745
0.100156
0.000941535
0.100635
0.00285401
0.101421
0.00474135
0.102476
0.00654257
0.103744
0.00821231
0.105162
0.00971972
0.106669
0.0110454
0.108202
0.0121799
0.109708
0.0131221
0.11114
0.0138777
0.112461
0.014457
0.113645
0.0148737
0.114674
0.0151439
0.115539
0.0152844
0.116238
0.0153125
0.116774
0.0152448
0.117155
0.0150969
0.117389
0.0148832
0.117489
0.0146164
0.117468
0.0143078
0.117337
0.0139673
0.117111
0.0136032
0.1168
0.0132225
0.116417
0.0128311
0.115971
0.0124338
0.115473
0.0120347
0.114931
0.0116368
0.114353
0.0112427
0.113746
0.0108545
0.113116
0.0104735
0.112468
0.0101011
0.111807
0.00973803
0.111137
0.00938488
0.110462
0.00904203
0.109786
0.00870972
0.10911
0.00838801
0.108437
0.00807687
0.107769
0.0077762
0.107107
0.00748582
0.106454
0.0072055
0.105811
0.00693496
0.105177
0.00667391
0.104555
0.00642204
0.103945
0.00617901
0.103348
0.00594448
0.102763
0.00571811
0.102192
0.00549955
0.101634
0.00528846
0.101091
0.0050845
0.100561
0.00488733
0.100045
0.00469662
0.0995441
0.00451206
0.0990569
0.00433332
0.098584
0.00416009
0.0981252
0.00399208
0.0976805
0.00382898
0.0972499
0.00367051
0.0968332
0.00351638
0.0964303
0.00336633
0.0960412
0.00322007
0.0956657
0.00307735
0.0953037
0.00293789
0.0949552
0.00280143
0.09462
0.00266773
0.0942981
0.00253651
0.0939892
0.00240752
0.0936934
0.0022805
0.0934106
0.00215519
0.0931407
0.00203131
0.0928836
0.00190859
0.0926392
0.00178674
0.0924077
0.00166548
0.0921888
0.00154449
0.0919826
0.00142345
0.0917891
0.00130202
0.0916083
0.00117981
0.0914402
0.00105645
0.0912849
0.000931497
0.0911422
0.000804486
0.0910124
0.000674905
0.0908954
0.000542189
0.0907912
0.000405712
0.0906997
0.000264779
0.090621
0.000118617
0.0905549
-3.36369e-05
0.0905013
-0.000192943
0.0904596
-0.000360367
0.0904296
-0.000537081
0.0904104
-0.000724364
0.0904009
-0.000923584
0.0903998
-0.00113617
0.090405
-0.00136355
0.0904141
-0.00160706
0.0904237
-0.00186779
0.0904299
-0.00214643
0.090428
-0.00244293
0.0904132
-0.0027563
0.0903801
-0.0030842
0.0903246
-0.0034228
-0.00376668
0.0902438
0.100124
0.000817846
0.100503
0.00247517
0.101129
0.00411516
0.101978
0.00569343
0.103015
0.00717553
0.104198
0.00853675
0.105483
0.00976036
0.106826
0.0108368
0.108185
0.0117625
0.109524
0.0125391
0.110809
0.0131716
0.112015
0.0136678
0.113121
0.0140377
0.114113
0.0142924
0.114982
0.0144437
0.115724
0.0145034
0.116337
0.0144833
0.116826
0.0143946
0.117195
0.0142477
0.11745
0.0140524
0.1176
0.0138171
0.117654
0.0135498
0.117619
0.013257
0.117505
0.0129448
0.117321
0.0126182
0.117074
0.0122815
0.116773
0.0119384
0.116423
0.011592
0.116033
0.0112448
0.115608
0.0108988
0.115153
0.0105558
0.114674
0.0102172
0.114175
0.00988411
0.113659
0.00955727
0.113132
0.00923738
0.112595
0.0089249
0.112051
0.00862018
0.111504
0.00832343
0.110955
0.00803476
0.110407
0.00775421
0.10986
0.00748174
0.109316
0.00721728
0.108778
0.00696069
0.108245
0.00671182
0.107719
0.00647048
0.107201
0.00623645
0.106691
0.00600951
0.10619
0.00578941
0.105698
0.00557592
0.105217
0.00536878
0.104746
0.00516772
0.104285
0.00497248
0.103836
0.00478282
0.103397
0.00459845
0.10297
0.00441912
0.102555
0.00424458
0.102151
0.00407456
0.101758
0.0039088
0.101378
0.00374706
0.101009
0.00358907
0.100651
0.00343459
0.100306
0.00328336
0.0999722
0.00313513
0.0996502
0.00298965
0.0993401
0.00284666
0.0990417
0.00270592
0.098755
0.00256715
0.0984801
0.0024301
0.0982169
0.0022945
0.0979654
0.00216006
0.0977257
0.00202651
0.0974976
0.00189353
0.0972813
0.00176083
0.0970767
0.00162807
0.0968838
0.0014949
0.0967026
0.00136096
0.0965333
0.00122584
0.0963756
0.00108912
0.0962298
0.000950339
0.0960957
0.000808994
0.0959733
0.000664536
0.0958627
0.000516366
0.0957636
0.000363828
0.0956761
0.0002062
0.0955997
4.2695e-05
0.0955343
-0.000127549
0.0954794
-0.000305465
0.0954344
-0.000492052
0.0953984
-0.000688369
0.0953703
-0.000895506
0.0953487
-0.00111455
0.0953317
-0.00134652
0.0953169
-0.0015923
0.0953016
-0.00185248
0.0952824
-0.00212726
0.0952557
-0.00241623
0.0952176
-0.00271818
0.0951643
-0.00303093
0.0950928
-0.00335124
-0.00367485
0.095001
0.1001
0.000717769
0.100406
0.00216931
0.100913
0.00360797
0.101606
0.00500057
0.102461
0.00632058
0.10345
0.0075481
0.104541
0.00866899
0.105703
0.00967442
0.106906
0.0105602
0.108119
0.0113258
0.109317
0.0119735
0.110477
0.0125081
0.111579
0.0129355
0.112608
0.0132631
0.113553
0.0134989
0.114405
0.0136512
0.11516
0.0137287
0.115815
0.0137397
0.11637
0.0136923
0.116828
0.0135943
0.117192
0.0134529
0.117467
0.0132747
0.117659
0.0130658
0.117772
0.0128315
0.117814
0.0125767
0.117789
0.0123057
0.117706
0.0120221
0.117569
0.0117293
0.117383
0.01143
0.117155
0.0111266
0.11689
0.0108212
0.116592
0.0105154
0.116265
0.0102108
0.115914
0.00990845
0.115542
0.00960941
0.115153
0.00931444
0.114749
0.00902419
0.114333
0.00873916
0.113908
0.00845973
0.113476
0.00818618
0.113039
0.00791871
0.112599
0.00765743
0.112157
0.00740242
0.111715
0.00715368
0.111274
0.00691117
0.110836
0.00667484
0.110401
0.00644458
0.10997
0.00622027
0.109544
0.00600176
0.109124
0.00578889
0.10871
0.00558149
0.108304
0.00537937
0.107904
0.00518233
0.107512
0.00499018
0.107129
0.0048027
0.106754
0.00461969
0.106387
0.00444091
0.10603
0.00426616
0.105682
0.00409522
0.105343
0.00392784
0.105014
0.00376382
0.104694
0.0036029
0.104384
0.00344488
0.104085
0.00328949
0.103795
0.00313651
0.103515
0.00298569
0.103245
0.00283678
0.102986
0.00268952
0.102737
0.00254365
0.102498
0.0023989
0.102269
0.00225498
0.102051
0.0021116
0.101844
0.00196844
0.101647
0.00182519
0.10146
0.0016815
0.101284
0.00153701
0.101118
0.00139133
0.100964
0.00124403
0.100819
0.00109468
0.100685
0.000942795
0.100562
0.000787845
0.100449
0.000629273
0.100347
0.000466467
0.100254
0.000298771
0.100171
0.000125475
0.100098
-5.41778e-05
0.100033
-0.000240989
0.0999771
-0.000435797
0.0999282
-0.000639457