/*--------------------------------*- C++ -*----------------------------------*\
| =========                 |                                                 |
| \\      /  F ield         | OpenFOAM: The Open Source CFD Toolbox           |
|  \\    /   O peration     | Version:  2406                                  |
|   \\  /    A nd           | Website:  www.openfoam.com                      |
|    \\/     M anipulation  |                                                 |
\*---------------------------------------------------------------------------*/
FoamFile
{
    version     2.0;
    format      ascii;
    arch        "LSB;label=32;scalar=64";
    class       volVectorField;
    location    "600";
    object      U;
}
// * * * * * * * * * * * * * * * * * * * * * * * * * * * * * * * * * * * * * //

dimensions      [0 1 -1 0 0 0 0];

internalField   nonuniform List<vector> 
150000
(
(7.94097 0.953545 0)
(6.6975 1.02916 0)
(5.1775 0.578431 0)
(3.90218 0.294372 0)
(3.11147 0.166103 0)
(2.60341 0.0998784 0)
(2.24733 0.0624359 0)
(1.98821 0.0414182 0)
(1.79343 0.0293168 0)
(1.64155 0.0219117 0)
(1.51931 0.0170957 0)
(1.41847 0.013794 0)
(1.33363 0.0114226 0)
(1.26109 0.00964987 0)
(1.19826 0.00828097 0)
(1.14324 0.00719612 0)
(1.09461 0.00631827 0)
(1.0513 0.0055957 0)
(1.01246 0.00499245 0)
(0.977429 0.00448274 0)
(0.945664 0.00404758 0)
(0.916729 0.00367269 0)
(0.890262 0.00334713 0)
(0.865965 0.00306238 0)
(0.843583 0.00281172 0)
(0.822905 0.00258977 0)
(0.803749 0.00239219 0)
(0.785957 0.00221545 0)
(0.769395 0.00205664 0)
(0.753946 0.00191334 0)
(0.739508 0.00178355 0)
(0.725992 0.00166555 0)
(0.713317 0.00155793 0)
(0.701414 0.00145946 0)
(0.690221 0.00136909 0)
(0.679682 0.00128593 0)
(0.669749 0.0012092 0)
(0.660376 0.00113821 0)
(0.651524 0.00107239 0)
(0.643156 0.00101121 0)
(0.63524 0.000954226 0)
(0.627747 0.000901029 0)
(0.620649 0.000851267 0)
(0.613922 0.000804623 0)
(0.607544 0.000760814 0)
(0.601494 0.000719589 0)
(0.595755 0.000680719 0)
(0.590308 0.000644 0)
(0.585138 0.000609248 0)
(0.580231 0.000576292 0)
(0.575573 0.000544982 0)
(0.571154 0.000515176 0)
(0.56696 0.000486746 0)
(0.562983 0.000459575 0)
(0.559213 0.000433552 0)
(0.555641 0.000408576 0)
(0.55226 0.000384553 0)
(0.549062 0.000361393 0)
(0.54604 0.000339014 0)
(0.543189 0.000317335 0)
(0.540504 0.000296281 0)
(0.537979 0.000275779 0)
(0.53561 0.000255758 0)
(0.533393 0.00023615 0)
(0.531326 0.000216886 0)
(0.529404 0.000197899 0)
(0.527626 0.00017912 0)
(0.52599 0.000160479 0)
(0.524495 0.000141906 0)
(0.523139 0.000123325 0)
(0.521922 0.000104657 0)
(0.520844 8.5817e-05 0)
(0.519907 6.67142e-05 0)
(0.519111 4.72477e-05 0)
(0.518459 2.73055e-05 0)
(0.517953 6.76196e-06 0)
(0.517598 -1.45261e-05 0)
(0.517398 -3.67232e-05 0)
(0.517358 -6.00214e-05 0)
(0.517487 -8.46479e-05 0)
(0.517794 -0.000110873 0)
(0.518288 -0.000139021 0)
(0.518983 -0.000169487 0)
(0.519895 -0.000202758 0)
(0.521043 -0.000239449 0)
(0.522453 -0.000280361 0)
(0.524155 -0.000326578 0)
(0.526187 -0.000379677 0)
(0.528602 -0.000442155 0)
(0.531472 -0.00051838 0)
(0.5349 -0.000616728 0)
(0.539044 -0.000754388 0)
(0.544167 -0.000968289 0)
(0.550736 -0.0013418 0)
(0.559623 -0.00207392 0)
(0.572472 -0.00363685 0)
(0.59248 -0.00710779 0)
(0.627435 -0.0157386 0)
(0.699341 -0.0461908 0)
(0.811934 -0.170751 0)
(10.2186 1.88712 0)
(10.3826 2.72494 0)
(9.62169 2.24107 0)
(8.49558 1.62034 0)
(7.47672 1.14056 0)
(6.64218 0.808026 0)
(5.96304 0.586483 0)
(5.41224 0.439632 0)
(4.96418 0.340499 0)
(4.59534 0.271597 0)
(4.28727 0.222134 0)
(4.02641 0.185491 0)
(3.80274 0.15756 0)
(3.60879 0.135731 0)
(3.43894 0.118303 0)
(3.28891 0.104132 0)
(3.15538 0.0924308 0)
(3.03573 0.0826388 0)
(2.9279 0.0743499 0)
(2.83019 0.0672624 0)
(2.74125 0.061148 0)
(2.65996 0.0558314 0)
(2.58537 0.0511757 0)
(2.5167 0.0470725 0)
(2.45328 0.0434353 0)
(2.39455 0.0401941 0)
(2.34002 0.0372917 0)
(2.28928 0.034681 0)
(2.24195 0.0323232 0)
(2.19773 0.0301855 0)
(2.15633 0.0282405 0)
(2.11751 0.0264649 0)
(2.08106 0.024839 0)
(2.04677 0.0233458 0)
(2.01449 0.0219706 0)
(1.98405 0.020701 0)
(1.95533 0.0195258 0)
(1.92819 0.0184354 0)
(1.90253 0.0174216 0)
(1.87825 0.0164769 0)
(1.85525 0.0155948 0)
(1.83345 0.0147695 0)
(1.81278 0.0139958 0)
(1.79317 0.0132692 0)
(1.77455 0.0125856 0)
(1.75687 0.0119413 0)
(1.74008 0.0113328 0)
(1.72413 0.0107574 0)
(1.70897 0.0102121 0)
(1.69456 0.00969457 0)
(1.68087 0.00920251 0)
(1.66786 0.00873384 0)
(1.6555 0.00828668 0)
(1.64376 0.00785927 0)
(1.63261 0.00744998 0)
(1.62203 0.00705731 0)
(1.612 0.00667986 0)
(1.6025 0.00631631 0)
(1.5935 0.00596543 0)
(1.58499 0.00562605 0)
(1.57696 0.00529704 0)
(1.56938 0.00497735 0)
(1.56226 0.00466594 0)
(1.55556 0.00436181 0)
(1.5493 0.00406398 0)
(1.54345 0.00377148 0)
(1.53801 0.00348334 0)
(1.53297 0.00319858 0)
(1.52833 0.00291619 0)
(1.52409 0.00263514 0)
(1.52025 0.00235435 0)
(1.51679 0.00207267 0)
(1.51374 0.00178886 0)
(1.51108 0.00150158 0)
(1.50882 0.00120934 0)
(1.50697 0.00091049 0)
(1.50555 0.000603147 0)
(1.50455 0.000285155 0)
(1.504 -4.59946e-05 0)
(1.50392 -0.000393261 0)
(1.50432 -0.000760186 0)
(1.50524 -0.00115106 0)
(1.50671 -0.00157118 0)
(1.50877 -0.0020272 0)
(1.51148 -0.00252765 0)
(1.51489 -0.00308379 0)
(1.5191 -0.00371101 0)
(1.52419 -0.00443119 0)
(1.53032 -0.00527708 0)
(1.53768 -0.00630042 0)
(1.54651 -0.00758775 0)
(1.5572 -0.00929143 0)
(1.57033 -0.0116918 0)
(1.58679 -0.0153234 0)
(1.60802 -0.0212327 0)
(1.63632 -0.031495 0)
(1.67543 -0.0501793 0)
(1.73193 -0.0852896 0)
(1.81498 -0.153631 0)
(1.90919 -0.288485 0)
(10.1768 1.34552 0)
(10.7882 2.53795 0)
(10.9413 2.66464 0)
(10.5996 2.36741 0)
(10.0101 1.96118 0)
(9.34898 1.5759 0)
(8.70057 1.25811 0)
(8.10404 1.01157 0)
(7.57287 0.82409 0)
(7.1062 0.681503 0)
(6.69752 0.572018 0)
(6.33904 0.486762 0)
(6.02332 0.419324 0)
(5.74382 0.365143 0)
(5.495 0.320968 0)
(5.2723 0.284466 0)
(5.07192 0.253936 0)
(4.89076 0.228124 0)
(4.72622 0.206086 0)
(4.57616 0.187108 0)
(4.43879 0.170635 0)
(4.3126 0.156235 0)
(4.19631 0.143567 0)
(4.08882 0.132356 0)
(3.98921 0.122382 0)
(3.89668 0.113464 0)
(3.81052 0.105455 0)
(3.73012 0.0982318 0)
(3.65496 0.0916918 0)
(3.58457 0.0857489 0)
(3.51854 0.0803306 0)
(3.45651 0.0753748 0)
(3.39815 0.0708287 0)
(3.34317 0.0666467 0)
(3.29132 0.0627896 0)
(3.24236 0.0592232 0)
(3.19609 0.0559177 0)
(3.15232 0.0528473 0)
(3.11087 0.049989 0)
(3.07159 0.0473227 0)
(3.03435 0.0448306 0)
(2.99901 0.0424967 0)
(2.96546 0.0403071 0)
(2.93359 0.038249 0)
(2.90331 0.0363111 0)
(2.87452 0.0344834 0)
(2.84714 0.0327565 0)
(2.8211 0.0311222 0)
(2.79632 0.0295729 0)
(2.77276 0.0281018 0)
(2.75033 0.0267026 0)
(2.729 0.0253695 0)
(2.7087 0.0240972 0)
(2.6894 0.0228809 0)
(2.67106 0.0217161 0)
(2.65362 0.0205985 0)
(2.63707 0.0195243 0)
(2.62135 0.0184898 0)
(2.60645 0.0174916 0)
(2.59233 0.0165263 0)
(2.57898 0.0155909 0)
(2.56636 0.0146825 0)
(2.55446 0.0137981 0)
(2.54325 0.012935 0)
(2.53273 0.0120905 0)
(2.52288 0.0112618 0)
(2.51367 0.0104463 0)
(2.50512 0.0096414 0)
(2.4972 0.00884422 0)
(2.48991 0.00805197 0)
(2.48324 0.0072617 0)
(2.47721 0.00647028 0)
(2.47179 0.00567437 0)
(2.46701 0.00487034 0)
(2.46286 0.0040542 0)
(2.45936 0.00322151 0)
(2.45651 0.00236723 0)
(2.45434 0.00148561 0)
(2.45287 0.000569957 0)
(2.45211 -0.000387586 0)
(2.45211 -0.00139643 0)
(2.45291 -0.00246798 0)
(2.45455 -0.00361632 0)
(2.4571 -0.00485911 0)
(2.46062 -0.00621906 0)
(2.46521 -0.00772598 0)
(2.471 -0.00942029 0)
(2.47811 -0.0113585 0)
(2.48675 -0.0136229 0)
(2.49717 -0.0163378 0)
(2.50971 -0.0196984 0)
(2.52484 -0.0240235 0)
(2.54319 -0.0298481 0)
(2.5657 -0.0380912 0)
(2.5936 -0.0503498 0)
(2.62853 -0.0693891 0)
(2.67246 -0.0998764 0)
(2.72718 -0.149396 0)
(2.79152 -0.229464 0)
(2.84908 -0.351369 0)
(10.0798 0.823402 0)
(10.5966 1.94651 0)
(11.0631 2.4533 0)
(11.2347 2.53059 0)
(11.1193 2.36876 0)
(10.8127 2.10351 0)
(10.4012 1.81894 0)
(9.94658 1.5563 0)
(9.48821 1.32973 0)
(9.04797 1.1403 0)
(8.63609 0.983998 0)
(8.25619 0.855373 0)
(7.90831 0.749202 0)
(7.59073 0.661021 0)
(7.30099 0.587224 0)
(7.03641 0.524958 0)
(6.79441 0.471995 0)
(6.57258 0.42659 0)
(6.36876 0.387376 0)
(6.18102 0.353274 0)
(6.00769 0.323428 0)
(5.84726 0.29715 0)
(5.69845 0.273887 0)
(5.56011 0.253187 0)
(5.43125 0.234681 0)
(5.31098 0.218064 0)
(5.19853 0.203081 0)
(5.09321 0.189522 0)
(4.99441 0.177206 0)
(4.90159 0.165982 0)
(4.81427 0.155723 0)
(4.73201 0.146316 0)
(4.65443 0.137669 0)
(4.58118 0.129697 0)
(4.51194 0.122331 0)
(4.44644 0.115509 0)
(4.38441 0.109175 0)
(4.32563 0.103283 0)
(4.26987 0.0977905 0)
(4.21695 0.0926602 0)
(4.16669 0.0878592 0)
(4.11892 0.0833581 0)
(4.07351 0.0791307 0)
(4.03032 0.0751535 0)
(3.98921 0.0714052 0)
(3.95009 0.067867 0)
(3.91283 0.0645215 0)
(3.87735 0.0613531 0)
(3.84355 0.0583476 0)
(3.81135 0.0554921 0)
(3.78067 0.0527747 0)
(3.75145 0.0501846 0)
(3.72362 0.0477117 0)
(3.69712 0.0453468 0)
(3.67189 0.0430813 0)
(3.64788 0.0409074 0)
(3.62504 0.0388175 0)
(3.60333 0.0368047 0)
(3.58272 0.0348625 0)
(3.56315 0.0329846 0)
(3.5446 0.0311652 0)
(3.52704 0.0293986 0)
(3.51044 0.0276794 0)
(3.49478 0.0260022 0)
(3.48002 0.0243621 0)
(3.46616 0.0227538 0)
(3.45317 0.0211723 0)
(3.44105 0.0196125 0)
(3.42977 0.0180692 0)
(3.41934 0.0165372 0)
(3.40973 0.0150109 0)
(3.40096 0.0134844 0)
(3.39302 0.0119516 0)
(3.38591 0.0104057 0)
(3.37964 0.0088393 0)
(3.37421 0.00724424 0)
(3.36965 0.00561127 0)
(3.36598 0.00392988 0)
(3.36321 0.00218785 0)
(3.36137 0.000370895 0)
(3.36052 -0.00153803 0)
(3.36068 -0.00355951 0)
(3.36193 -0.00571886 0)
(3.36433 -0.00804769 0)
(3.36796 -0.0105863 0)
(3.37293 -0.0133873 0)
(3.37938 -0.0165208 0)
(3.38747 -0.020083 0)
(3.39739 -0.0242099 0)
(3.40942 -0.0290994 0)
(3.42389 -0.0350477 0)
(3.44123 -0.042509 0)
(3.46198 -0.0521933 0)
(3.48679 -0.0652209 0)
(3.51641 -0.0833547 0)
(3.55148 -0.109311 0)
(3.59218 -0.147069 0)
(3.63735 -0.201925 0)
(3.68253 -0.279484 0)
(3.71593 -0.380608 0)
(10.0426 0.546325 0)
(10.395 1.4587 0)
(10.8535 2.05166 0)
(11.2147 2.33759 0)
(11.3915 2.39319 0)
(11.3902 2.30057 0)
(11.2487 2.12905 0)
(11.0101 1.92738 0)
(10.7129 1.72442 0)
(10.3864 1.53486 0)
(10.0506 1.36473 0)
(9.7182 1.21528 0)
(9.39684 1.08539 0)
(9.09063 0.972977 0)
(8.80149 0.875728 0)
(8.52995 0.791429 0)
(8.27575 0.718112 0)
(8.03817 0.654084 0)
(7.81627 0.59792 0)
(7.609 0.54843 0)
(7.41529 0.504622 0)
(7.23413 0.465674 0)
(7.06452 0.430899 0)
(6.90558 0.399723 0)
(6.75644 0.371667 0)
(6.61636 0.346326 0)
(6.48462 0.323358 0)
(6.36059 0.302473 0)
(6.24369 0.283422 0)
(6.13339 0.265995 0)
(6.02921 0.250007 0)
(5.93071 0.235303 0)
(5.83751 0.221744 0)
(5.74924 0.209212 0)
(5.66556 0.197603 0)
(5.58618 0.186825 0)
(5.51083 0.176799 0)
(5.43924 0.167454 0)
(5.37119 0.158726 0)
(5.30646 0.150559 0)
(5.24487 0.142905 0)
(5.18623 0.135718 0)
(5.13037 0.12896 0)
(5.07714 0.122592 0)
(5.02641 0.116585 0)
(4.97804 0.110907 0)
(4.9319 0.105534 0)
(4.8879 0.10044 0)
(4.84592 0.0956037 0)
(4.80587 0.0910051 0)
(4.76766 0.0866256 0)
(4.7312 0.0824485 0)
(4.69643 0.0784581 0)
(4.66327 0.0746399 0)
(4.63165 0.0709806 0)
(4.60152 0.0674678 0)
(4.57281 0.0640897 0)
(4.54548 0.0608355 0)
(4.51947 0.0576948 0)
(4.49475 0.054658 0)
(4.47127 0.0517156 0)
(4.449 0.048859 0)
(4.42789 0.0460794 0)
(4.40793 0.0433685 0)
(4.38908 0.0407184 0)
(4.37132 0.038121 0)
(4.35462 0.0355683 0)
(4.33898 0.0330525 0)
(4.32437 0.0305653 0)
(4.31078 0.0280986 0)
(4.2982 0.0256436 0)
(4.28663 0.0231915 0)
(4.27607 0.0207324 0)
(4.26651 0.0182562 0)
(4.25796 0.0157514 0)
(4.25044 0.0132056 0)
(4.24395 0.0106047 0)
(4.23851 0.00793273 0)
(4.23416 0.00517134 0)
(4.23091 0.00229907 0)
(4.22882 -0.000709506 0)
(4.22792 -0.0038849 0)
(4.22829 -0.00726435 0)
(4.22998 -0.010894 0)
(4.2331 -0.0148322 0)
(4.23773 -0.0191537 0)
(4.24402 -0.0239568 0)
(4.25212 -0.0293731 0)
(4.26221 -0.0355832 0)
(4.27453 -0.0428399 0)
(4.28935 -0.0515045 0)
(4.30699 -0.0621013 0)
(4.32779 -0.075398 0)
(4.3521 -0.0925174 0)
(4.38013 -0.115077 0)
(4.41175 -0.14532 0)
(4.44611 -0.18612 0)
(4.48097 -0.240605 0)
(4.51178 -0.310847 0)
(4.53099 -0.394601 0)
(10.0236 0.385464 0)
(10.2537 1.09646 0)
(10.6178 1.64945 0)
(10.9919 2.01125 0)
(11.2853 2.19915 0)
(11.4636 2.24888 0)
(11.5246 2.20121 0)
(11.4831 2.09337 0)
(11.3612 1.95411 0)
(11.1816 1.80308 0)
(10.964 1.65254 0)
(10.7238 1.50939 0)
(10.4725 1.377 0)
(10.218 1.25657 0)
(9.96606 1.14809 0)
(9.72013 1.05086 0)
(9.48252 0.963916 0)
(9.25452 0.886198 0)
(9.03678 0.816667 0)
(8.8295 0.754355 0)
(8.63261 0.69839 0)
(8.44583 0.648002 0)
(8.2688 0.602514 0)
(8.10107 0.561338 0)
(7.94218 0.523963 0)
(7.79163 0.489946 0)
(7.64895 0.458903 0)
(7.51369 0.430502 0)
(7.3854 0.404453 0)
(7.26366 0.380502 0)
(7.14807 0.358431 0)
(7.03827 0.338046 0)
(6.93391 0.319178 0)
(6.83467 0.301678 0)
(6.74024 0.285415 0)
(6.65035 0.270271 0)
(6.56474 0.256145 0)
(6.48316 0.242944 0)
(6.40539 0.230586 0)
(6.33123 0.218998 0)
(6.26047 0.208115 0)
(6.19294 0.197876 0)
(6.12847 0.188231 0)
(6.06691 0.179129 0)
(6.0081 0.170528 0)
(5.95192 0.162388 0)
(5.89824 0.154673 0)
(5.84694 0.147351 0)
(5.79792 0.14039 0)
(5.75106 0.133765 0)
(5.70628 0.12745 0)
(5.66349 0.12142 0)
(5.6226 0.115655 0)
(5.58354 0.110135 0)
(5.54624 0.104842 0)
(5.51063 0.0997564 0)
(5.47664 0.0948639 0)
(5.44423 0.0901486 0)
(5.41334 0.0855963 0)
(5.38391 0.0811932 0)
(5.35591 0.0769263 0)
(5.3293 0.0727832 0)
(5.30402 0.0687519 0)
(5.28006 0.0648207 0)
(5.25738 0.0609783 0)
(5.23595 0.0572134 0)
(5.21574 0.0535149 0)
(5.19674 0.0498717 0)
(5.17893 0.0462724 0)
(5.16229 0.0427054 0)
(5.14681 0.0391589 0)
(5.13249 0.0356202 0)
(5.11931 0.0320761 0)
(5.10729 0.0285123 0)
(5.09641 0.0249132 0)
(5.08669 0.0212618 0)
(5.07815 0.017539 0)
(5.0708 0.0137231 0)
(5.06466 0.00978963 0)
(5.05977 0.00570979 0)
(5.05615 0.00144992 0)
(5.05387 -0.00303011 0)
(5.05297 -0.00777882 0)
(5.05352 -0.0128557 0)
(5.0556 -0.0183349 0)
(5.0593 -0.02431 0)
(5.06475 -0.0309014 0)
(5.07206 -0.0382667 0)
(5.0814 -0.0466151 0)
(5.09293 -0.0562289 0)
(5.10684 -0.0674939 0)
(5.12332 -0.0809412 0)
(5.14251 -0.0973024 0)
(5.16449 -0.117575 0)
(5.18908 -0.143081 0)
(5.21572 -0.17548 0)
(5.24315 -0.21664 0)
(5.26904 -0.268186 0)
(5.28974 -0.330498 0)
(5.30054 -0.400917 0)
(10.0134 0.283928 0)
(10.1646 0.837119 0)
(10.4345 1.31433 0)
(10.7555 1.6787 0)
(11.061 1.92451 0)
(11.3107 2.06212 0)
(11.4851 2.1103 0)
(11.5793 2.09123 0)
(11.5987 2.02596 0)
(11.5545 1.93196 0)
(11.4597 1.82246 0)
(11.3265 1.7068 0)
(11.1661 1.59116 0)
(10.9872 1.47939 0)
(10.7971 1.37364 0)
(10.601 1.27498 0)
(10.4031 1.18374 0)
(10.2063 1.09985 0)
(10.0126 1.02296 0)
(9.82345 0.952625 0)
(9.63987 0.888312 0)
(9.46244 0.829499 0)
(9.2915 0.775676 0)
(9.12722 0.726366 0)
(8.96962 0.681129 0)
(8.81861 0.639563 0)
(8.67405 0.601307 0)
(8.53577 0.566038 0)
(8.40354 0.533465 0)
(8.27714 0.503329 0)
(8.15631 0.475399 0)
(8.04083 0.449467 0)
(7.93046 0.425351 0)
(7.82495 0.402886 0)
(7.72407 0.381924 0)
(7.62762 0.362332 0)
(7.53538 0.343994 0)
(7.44715 0.326802 0)
(7.36274 0.310661 0)
(7.28196 0.295484 0)
(7.20466 0.281193 0)
(7.13066 0.267717 0)
(7.05982 0.254993 0)
(6.99198 0.242961 0)
(6.92703 0.231569 0)
(6.86482 0.220769 0)
(6.80524 0.210514 0)
(6.74818 0.200766 0)
(6.69353 0.191487 0)
(6.64119 0.182642 0)
(6.59107 0.174199 0)
(6.54307 0.16613 0)
(6.49713 0.158406 0)
(6.45316 0.151002 0)
(6.41108 0.143896 0)
(6.37084 0.137064 0)
(6.33237 0.130485 0)
(6.29561 0.124141 0)
(6.2605 0.118012 0)
(6.227 0.112082 0)
(6.19506 0.106333 0)
(6.16463 0.100748 0)
(6.13567 0.0953137 0)
(6.10815 0.0900135 0)
(6.08204 0.0848329 0)
(6.05731 0.0797574 0)
(6.03392 0.0747727 0)
(6.01186 0.0698641 0)
(5.9911 0.0650171 0)
(5.97163 0.0602167 0)
(5.95344 0.0554475 0)
(5.93652 0.0506933 0)
(5.92085 0.0459371 0)
(5.90644 0.0411607 0)
(5.89329 0.0363442 0)
(5.8814 0.0314662 0)
(5.87079 0.0265025 0)
(5.86147 0.0214262 0)
(5.85347 0.0162066 0)
(5.84679 0.0108084 0)
(5.84149 0.00519038 0)
(5.8376 -0.00069614 0)
(5.83517 -0.00690925 0)
(5.83426 -0.0135193 0)
(5.83493 -0.0206127 0)
(5.83726 -0.0282965 0)
(5.84134 -0.0367056 0)
(5.84727 -0.0460118 0)
(5.85515 -0.0564364 0)
(5.86509 -0.068267 0)
(5.8772 -0.0818803 0)
(5.89152 -0.0977688 0)
(5.90807 -0.116573 0)
(5.92669 -0.13911 0)
(5.94701 -0.166378 0)
(5.96829 -0.199516 0)
(5.98921 -0.239635 0)
(6.00777 -0.287452 0)
(6.02127 -0.342635 0)
(6.02678 -0.402895 0)
(10.0083 0.218046 0)
(10.1103 0.654747 0)
(10.3067 1.05498 0)
(10.5624 1.38941 0)
(10.8344 1.64649 0)
(11.0904 1.82568 0)
(11.3082 1.93332 0)
(11.475 1.98022 0)
(11.5858 1.97906 0)
(11.642 1.9422 0)
(11.6489 1.88053 0)
(11.6135 1.80294 0)
(11.5434 1.71626 0)
(11.446 1.62552 0)
(11.3278 1.53425 0)
(11.1943 1.4448 0)
(11.0501 1.35869 0)
(10.899 1.27678 0)
(10.7439 1.19952 0)
(10.5871 1.12709 0)
(10.4304 1.05942 0)
(10.2751 0.996388 0)
(10.1223 0.93775 0)
(9.97269 0.883247 0)
(9.82677 0.8326 0)
(9.68492 0.785529 0)
(9.54737 0.741759 0)
(9.41427 0.701032 0)
(9.28566 0.663102 0)
(9.16157 0.627743 0)
(9.04194 0.594745 0)
(8.92671 0.563915 0)
(8.81579 0.535077 0)
(8.70907 0.50807 0)
(8.60642 0.482747 0)
(8.50773 0.458973 0)
(8.41286 0.436626 0)
(8.32169 0.415595 0)
(8.23407 0.395778 0)
(8.14987 0.377083 0)
(8.06898 0.359423 0)
(7.99127 0.342723 0)
(7.91661 0.326911 0)
(7.84489 0.311922 0)
(7.776 0.297696 0)
(7.70984 0.284178 0)
(7.64629 0.271317 0)
(7.58526 0.259067 0)
(7.52667 0.247385 0)
(7.47041 0.23623 0)
(7.41641 0.225566 0)
(7.36459 0.215358 0)
(7.31487 0.205574 0)
(7.26718 0.196183 0)
(7.22145 0.187158 0)
(7.17763 0.178472 0)
(7.13564 0.1701 0)
(7.09544 0.162019 0)
(7.05697 0.154206 0)
(7.02018 0.146641 0)
(6.98502 0.139302 0)
(6.95147 0.13217 0)
(6.91946 0.125225 0)
(6.88898 0.118451 0)
(6.85998 0.111828 0)
(6.83244 0.105339 0)
(6.80633 0.0989664 0)
(6.78163 0.092692 0)
(6.75831 0.0864981 0)
(6.73635 0.0803665 0)
(6.71576 0.0742784 0)
(6.6965 0.0682141 0)
(6.67858 0.0621531 0)
(6.662 0.0560732 0)
(6.64674 0.0499507 0)
(6.63282 0.0437598 0)
(6.62024 0.0374719 0)
(6.60901 0.0310552 0)
(6.59916 0.0244736 0)
(6.5907 0.017686 0)
(6.58365 0.010645 0)
(6.57806 0.00329507 0)
(6.57396 -0.0044292 0)
(6.5714 -0.012606 0)
(6.57043 -0.0213295 0)
(6.5711 -0.0307147 0)
(6.57347 -0.0409029 0)
(6.57761 -0.0520694 0)
(6.58357 -0.064433 0)
(6.59141 -0.0782683 0)
(6.60114 -0.0939197 0)
(6.61274 -0.111816 0)
(6.62607 -0.132486 0)
(6.6409 -0.156557 0)
(6.65674 -0.184743 0)
(6.67283 -0.217773 0)
(6.68798 -0.256248 0)
(6.70061 -0.300376 0)
(6.70878 -0.349587 0)
(6.71064 -0.402083 0)
(10.0055 0.173566 0)
(10.0768 0.525155 0)
(10.2204 0.858805 0)
(10.4186 1.15357 0)
(10.6449 1.39838 0)
(10.8768 1.5891 0)
(11.0959 1.72631 0)
(11.2885 1.81419 0)
(11.4456 1.85924 0)
(11.5631 1.86901 0)
(11.6407 1.85101 0)
(11.6804 1.81219 0)
(11.6859 1.75854 0)
(11.6617 1.69496 0)
(11.6125 1.62534 0)
(11.5427 1.55263 0)
(11.4565 1.47902 0)
(11.3574 1.40608 0)
(11.2486 1.33488 0)
(11.1327 1.26613 0)
(11.0118 1.20029 0)
(10.8879 1.1376 0)
(10.7622 1.07814 0)
(10.6361 1.02194 0)
(10.5104 0.968923 0)
(10.3859 0.918981 0)
(10.2632 0.871979 0)
(10.1426 0.827766 0)
(10.0246 0.786182 0)
(9.90935 0.747069 0)
(9.79705 0.710269 0)
(9.68782 0.675631 0)
(9.58174 0.643008 0)
(9.47884 0.612264 0)
(9.37913 0.58327 0)
(9.2826 0.555903 0)
(9.18922 0.530052 0)
(9.09894 0.505611 0)
(9.01171 0.482483 0)
(8.92747 0.460576 0)
(8.84614 0.439807 0)
(8.76766 0.420098 0)
(8.69195 0.401376 0)
(8.61893 0.383575 0)
(8.54853 0.366631 0)
(8.48068 0.350489 0)
(8.41529 0.335092 0)
(8.35231 0.320393 0)
(8.29164 0.306343 0)
(8.23323 0.292901 0)
(8.17701 0.280024 0)
(8.12291 0.267676 0)
(8.07087 0.25582 0)
(8.02084 0.244423 0)
(7.97275 0.233453 0)
(7.92654 0.222881 0)
(7.88218 0.212679 0)
(7.8396 0.202819 0)
(7.79876 0.193276 0)
(7.75963 0.184026 0)
(7.72215 0.175046 0)
(7.68629 0.166312 0)
(7.65201 0.157803 0)
(7.61928 0.149497 0)
(7.58807 0.141374 0)
(7.55835 0.133412 0)
(7.5301 0.125591 0)
(7.5033 0.117891 0)
(7.47792 0.110291 0)
(7.45394 0.102768 0)
(7.43136 0.0953022 0)
(7.41016 0.0878696 0)
(7.39034 0.0804467 0)
(7.37189 0.0730079 0)
(7.3548 0.0655259 0)
(7.33908 0.0579712 0)
(7.32474 0.0503112 0)
(7.31178 0.0425098 0)
(7.30022 0.0345269 0)
(7.29007 0.0263165 0)
(7.28135 0.0178266 0)
(7.27409 0.00899675 0)
(7.26831 -0.000243325 0)
(7.26404 -0.0099763 0)
(7.26133 -0.0203002 0)
(7.2602 -0.0313321 0)
(7.26069 -0.0432128 0)
(7.26283 -0.0561125 0)
(7.26663 -0.0702369 0)
(7.2721 -0.0858355 0)
(7.27918 -0.103208 0)
(7.28778 -0.122711 0)
(7.29772 -0.144759 0)
(7.30869 -0.169814 0)
(7.32019 -0.198358 0)
(7.33152 -0.230827 0)
(7.34168 -0.267497 0)
(7.34947 -0.308316 0)
(7.35351 -0.352674 0)
(7.35259 -0.399209 0)
(10.004 0.142112 0)
(10.0556 0.430917 0)
(10.1623 0.710457 0)
(10.3152 0.966277 0)
(10.4981 1.18942 0)
(10.6963 1.37523 0)
(10.8963 1.5221 0)
(11.0866 1.63097 0)
(11.2582 1.70466 0)
(11.4049 1.74724 0)
(11.5233 1.76335 0)
(11.6122 1.75773 0)
(11.6723 1.73488 0)
(11.7053 1.69888 0)
(11.7136 1.65321 0)
(11.7001 1.60079 0)
(11.6678 1.54398 0)
(11.6195 1.48465 0)
(11.5579 1.42424 0)
(11.4855 1.36383 0)
(11.4043 1.30421 0)
(11.3164 1.24597 0)
(11.2232 1.1895 0)
(11.1263 1.13506 0)
(11.0267 1.08279 0)
(10.9255 1.0328 0)
(10.8235 0.985081 0)
(10.7213 0.939631 0)
(10.6195 0.896397 0)
(10.5186 0.85531 0)
(10.4189 0.816288 0)
(10.3208 0.779241 0)
(10.2243 0.744074 0)
(10.1299 0.71069 0)
(10.0375 0.678994 0)
(9.94725 0.648893 0)
(9.85928 0.620295 0)
(9.77363 0.593112 0)
(9.6903 0.567262 0)
(9.60933 0.542663 0)
(9.53071 0.519242 0)
(9.45443 0.496925 0)
(9.38046 0.475647 0)
(9.30879 0.455343 0)
(9.23938 0.435953 0)
(9.1722 0.417422 0)
(9.1072 0.399696 0)
(9.04435 0.382726 0)
(8.98361 0.366464 0)
(8.92492 0.350866 0)
(8.86825 0.335891 0)
(8.81354 0.321498 0)
(8.76077 0.307652 0)
(8.70988 0.294317 0)
(8.66083 0.281458 0)
(8.61358 0.269045 0)
(8.56809 0.257047 0)
(8.52433 0.245436 0)
(8.48225 0.234183 0)
(8.44182 0.223261 0)
(8.40301 0.212646 0)
(8.36578 0.202312 0)
(8.33011 0.192235 0)
(8.29598 0.182391 0)
(8.26334 0.172757 0)
(8.23218 0.16331 0)
(8.20248 0.154026 0)
(8.17422 0.144883 0)
(8.14738 0.135857 0)
(8.12195 0.126924 0)
(8.09792 0.118059 0)
(8.07526 0.109238 0)
(8.05399 0.100433 0)
(8.03408 0.0916158 0)
(8.01554 0.0827564 0)
(7.99838 0.0738218 0)
(7.98258 0.0647766 0)
(7.96816 0.0555814 0)
(7.95513 0.0461926 0)
(7.9435 0.0365612 0)
(7.93327 0.0266319 0)
(7.92447 0.0163414 0)
(7.91712 0.00561699 0)
(7.91123 -0.00562543 0)
(7.90682 -0.0174839 0)
(7.9039 -0.0300732 0)
(7.90249 -0.0435282 0)
(7.90259 -0.0580074 0)
(7.90417 -0.0736972 0)
(7.90719 -0.0908152 0)
(7.91158 -0.109613 0)
(7.91719 -0.130375 0)
(7.9238 -0.153415 0)
(7.93108 -0.179058 0)
(7.93859 -0.207612 0)
(7.94568 -0.239312 0)
(7.95159 -0.274242 0)
(7.95537 -0.312222 0)
(7.95607 -0.352691 0)
(7.95288 -0.394618 0)
(10.003 0.118951 0)
(10.0416 0.360602 0)
(10.1226 0.597107 0)
(10.2413 0.818484 0)
(10.3879 1.0179 0)
(10.5529 1.19121 0)
(10.7269 1.33627 0)
(10.9012 1.45264 0)
(11.0683 1.54126 0)
(11.2221 1.60409 0)
(11.3582 1.64374 0)
(11.4739 1.66319 0)
(11.5679 1.6655 0)
(11.6399 1.65367 0)
(11.6906 1.63047 0)
(11.7213 1.5984 0)
(11.7336 1.55961 0)
(11.7295 1.51593 0)
(11.7107 1.46888 0)
(11.6792 1.41969 0)
(11.6369 1.36937 0)
(11.5854 1.31867 0)
(11.5262 1.26821 0)
(11.4607 1.21844 0)
(11.39 1.16969 0)
(11.3154 1.12223 0)
(11.2377 1.0762 0)
(11.1577 1.03174 0)
(11.0761 0.988888 0)
(10.9935 0.947688 0)
(10.9104 0.908138 0)
(10.8272 0.870223 0)
(10.7444 0.833907 0)
(10.6621 0.799149 0)
(10.5807 0.765896 0)
(10.5004 0.734094 0)
(10.4213 0.703681 0)
(10.3436 0.674599 0)
(10.2674 0.646785 0)
(10.1927 0.620179 0)
(10.1197 0.594721 0)
(10.0484 0.570353 0)
(9.97887 0.547017 0)
(9.91109 0.52466 0)
(9.84509 0.503229 0)
(9.78088 0.482673 0)
(9.71847 0.462944 0)
(9.65785 0.443996 0)
(9.59901 0.425784 0)
(9.54193 0.408268 0)
(9.4866 0.391405 0)
(9.433 0.375159 0)
(9.38111 0.359492 0)
(9.33091 0.344369 0)
(9.28236 0.329756 0)
(9.23546 0.315623 0)
(9.19017 0.301936 0)
(9.14648 0.288668 0)
(9.10435 0.275788 0)
(9.06376 0.263269 0)
(9.02469 0.251085 0)
(8.98712 0.239209 0)
(8.95102 0.227614 0)
(8.91638 0.216276 0)
(8.88319 0.20517 0)
(8.85141 0.194271 0)
(8.82103 0.183554 0)
(8.79205 0.172993 0)
(8.76444 0.162564 0)
(8.7382 0.152241 0)
(8.71331 0.141997 0)
(8.68977 0.131804 0)
(8.66757 0.121633 0)
(8.64672 0.111454 0)
(8.62719 0.101234 0)
(8.609 0.0909379 0)
(8.59215 0.0805283 0)
(8.57664 0.0699632 0)
(8.56247 0.059197 0)
(8.54965 0.0481788 0)
(8.53819 0.0368516 0)
(8.5281 0.0251512 0)
(8.51938 0.0130047 0)
(8.51205 0.000329116 0)
(8.5061 -0.0129705 0)
(8.50153 -0.0270032 0)
(8.49833 -0.0418941 0)
(8.49649 -0.0577864 0)
(8.49594 -0.0748434 0)
(8.49663 -0.0932494 0)
(8.49845 -0.113209 0)
(8.50123 -0.134941 0)
(8.50475 -0.158676 0)
(8.50869 -0.184631 0)
(8.51264 -0.21299 0)
(8.51608 -0.243856 0)
(8.51838 -0.277204 0)
(8.51884 -0.312803 0)
(8.51679 -0.350165 0)
(8.51167 -0.388502 0)
(10.0023 0.101316 0)
(10.0321 0.30679 0)
(10.095 0.509135 0)
(10.1884 0.701335 0)
(10.3061 0.878256 0)
(10.4421 1.03649 0)
(10.5899 1.17397 0)
(10.7434 1.2898 0)
(10.8967 1.38403 0)
(11.0447 1.45752 0)
(11.1831 1.51163 0)
(11.3089 1.54811 0)
(11.4199 1.56893 0)
(11.5148 1.57614 0)
(11.593 1.57176 0)
(11.6547 1.55772 0)
(11.7003 1.53579 0)
(11.7307 1.50756 0)
(11.7471 1.47442 0)
(11.7507 1.43758 0)
(11.7428 1.39806 0)
(11.7247 1.3567 0)
(11.6975 1.31422 0)
(11.6625 1.27117 0)
(11.6208 1.22803 0)
(11.5734 1.18514 0)
(11.5212 1.14281 0)
(11.465 1.10124 0)
(11.4056 1.06059 0)
(11.3436 1.021 0)
(11.2795 0.982533 0)
(11.214 0.945252 0)
(11.1474 0.909185 0)
(11.0801 0.874345 0)
(11.0124 0.840731 0)
(10.9447 0.808328 0)
(10.8772 0.777116 0)
(10.8101 0.747066 0)
(10.7436 0.718144 0)
(10.6779 0.690316 0)
(10.613 0.663541 0)
(10.5491 0.637779 0)
(10.4863 0.61299 0)
(10.4247 0.589132 0)
(10.3643 0.566164 0)
(10.3052 0.544046 0)
(10.2474 0.522737 0)
(10.191 0.502197 0)
(10.1359 0.48239 0)
(10.0822 0.463277 0)
(10.03 0.444823 0)
(9.97912 0.426992 0)
(9.9297 0.409751 0)
(9.88169 0.393067 0)
(9.83511 0.376906 0)
(9.78994 0.36124 0)
(9.74617 0.346037 0)
(9.70381 0.331269 0)
(9.66283 0.316907 0)
(9.62323 0.302923 0)
(9.585 0.28929 0)
(9.54814 0.275981 0)
(9.51262 0.262971 0)
(9.47843 0.250232 0)
(9.44558 0.237739 0)
(9.41404 0.225467 0)
(9.38381 0.213389 0)
(9.35488 0.201479 0)
(9.32724 0.189711 0)
(9.30089 0.178056 0)
(9.27582 0.166488 0)
(9.25203 0.154977 0)
(9.22951 0.143493 0)
(9.20825 0.132003 0)
(9.18827 0.120473 0)
(9.16956 0.108867 0)
(9.15211 0.0971459 0)
(9.13594 0.0852663 0)
(9.12104 0.0731817 0)
(9.10741 0.0608404 0)
(9.09507 0.0481855 0)
(9.08401 0.0351534 0)
(9.07422 0.021673 0)
(9.06572 0.00766445 0)
(9.05848 -0.00696189 0)
(9.0525 -0.0223068 0)
(9.04774 -0.0384834 0)
(9.04418 -0.0556178 0)
(9.04173 -0.0738494 0)
(9.04033 -0.0933299 0)
(9.03984 -0.114221 0)
(9.04009 -0.136688 0)
(9.04087 -0.160891 0)
(9.04189 -0.186969 0)
(9.04279 -0.215018 0)
(9.04313 -0.245061 0)
(9.04242 -0.277011 0)
(9.04015 -0.310631 0)
(9.03583 -0.345501 0)
(9.02907 -0.381016 0)
(10.0018 0.0875079 0)
(10.0254 0.26462 0)
(10.0752 0.439645 0)
(10.1498 0.607527 0)
(10.2452 0.764389 0)
(10.3573 0.907495 0)
(10.4818 1.03504 0)
(10.6144 1.14604 0)
(10.7505 1.24021 0)
(10.8863 1.31782 0)
(11.0183 1.37956 0)
(11.1435 1.42644 0)
(11.2595 1.45968 0)
(11.3647 1.4806 0)
(11.4579 1.49063 0)
(11.5385 1.49116 0)
(11.6062 1.48354 0)
(11.6612 1.46904 0)
(11.704 1.44884 0)
(11.735 1.42398 0)
(11.7551 1.39542 0)
(11.765 1.36396 0)
(11.7657 1.33031 0)
(11.7581 1.29508 0)
(11.743 1.25878 0)
(11.7212 1.22183 0)
(11.6936 1.18459 0)
(11.6609 1.14735 0)
(11.6238 1.11034 0)
(11.5828 1.07375 0)
(11.5387 1.03773 0)
(11.4919 1.00239 0)
(11.4429 0.967826 0)
(11.392 0.934095 0)
(11.3398 0.901245 0)
(11.2865 0.869303 0)
(11.2324 0.838287 0)
(11.1779 0.808202 0)
(11.123 0.779045 0)
(11.0681 0.750807 0)
(11.0133 0.723473 0)
(10.9587 0.697024 0)
(10.9046 0.671437 0)
(10.851 0.646687 0)
(10.798 0.622748 0)
(10.7458 0.599591 0)
(10.6943 0.577188 0)
(10.6438 0.555508 0)
(10.5942 0.534522 0)
(10.5455 0.5142 0)
(10.4979 0.494513 0)
(10.4513 0.47543 0)
(10.4058 0.456922 0)
(10.3614 0.438961 0)
(10.3181 0.421517 0)
(10.276 0.404563 0)
(10.235 0.388071 0)
(10.1952 0.372014 0)
(10.1565 0.356365 0)
(10.119 0.341097 0)
(10.0827 0.326185 0)
(10.0476 0.311601 0)
(10.0136 0.297321 0)
(9.98083 0.283318 0)
(9.94922 0.269567 0)
(9.9188 0.256042 0)
(9.88954 0.242716 0)
(9.86146 0.229562 0)
(9.83456 0.216555 0)
(9.80883 0.203665 0)
(9.78426 0.190865 0)
(9.76087 0.178124 0)
(9.73865 0.165411 0)
(9.71761 0.152693 0)
(9.69773 0.139935 0)
(9.67903 0.127101 0)
(9.6615 0.11415 0)
(9.64515 0.10104 0)
(9.62998 0.0877231 0)
(9.61598 0.074149 0)
(9.60316 0.0602617 0)
(9.59151 0.0459996 0)
(9.58103 0.0312949 0)
(9.5717 0.0160727 0)
(9.56351 0.000250075 0)
(9.55643 -0.0162641 0)
(9.55043 -0.0335699 0)
(9.54545 -0.0517757 0)
(9.54142 -0.0709981 0)
(9.53825 -0.091359 0)
(9.5358 -0.112983 0)
(9.53392 -0.13599 0)
(9.53239 -0.160488 0)
(9.53096 -0.186558 0)
(9.52932 -0.214238 0)
(9.52712 -0.243501 0)
(9.52398 -0.274231 0)
(9.5195 -0.306202 0)
(9.51333 -0.33906 0)
(9.50521 -0.372329 0)
(10.0015 0.076442 0)
(10.0206 0.230866 0)
(10.0608 0.38378 0)
(10.1214 0.531446 0)
(10.1995 0.670893 0)
(10.2924 0.799927 0)
(10.3972 0.917019 0)
(10.5107 1.02124 0)
(10.6297 1.11218 0)
(10.7512 1.18986 0)
(10.8724 1.25459 0)
(10.9909 1.30697 0)
(11.1044 1.34773 0)
(11.2113 1.37775 0)
(11.3103 1.39799 0)
(11.4003 1.40942 0)
(11.4807 1.41304 0)
(11.5512 1.40982 0)
(11.6117 1.40067 0)
(11.6623 1.38646 0)
(11.7033 1.368 0)
(11.7352 1.346 0)
(11.7583 1.32111 0)
(11.7734 1.2939 0)
(11.781 1.26489 0)
(11.7817 1.2345 0)
(11.7762 1.20313 0)
(11.765 1.17108 0)
(11.7487 1.13865 0)
(11.7279 1.10604 0)
(11.7032 1.07347 0)
(11.6749 1.04109 0)
(11.6435 1.00903 0)
(11.6095 0.977391 0)
(11.5733 0.946262 0)
(11.5351 0.915708 0)
(11.4954 0.88578 0)
(11.4543 0.856513 0)
(11.4122 0.827934 0)
(11.3693 0.80006 0)
(11.3258 0.7729 0)
(11.2819 0.746455 0)
(11.2378 0.720724 0)
(11.1936 0.695699 0)
(11.1494 0.671368 0)
(11.1055 0.647718 0)
(11.0618 0.624732 0)
(11.0184 0.602392 0)
(10.9756 0.580679 0)
(10.9333 0.55957 0)
(10.8916 0.539045 0)
(10.8505 0.519081 0)
(10.8102 0.499654 0)
(10.7706 0.480742 0)
(10.7318 0.46232 0)
(10.6939 0.444364 0)
(10.6568 0.426851 0)