/*--------------------------------*- C++ -*----------------------------------*\
| =========                 |                                                 |
| \\      /  F ield         | OpenFOAM: The Open Source CFD Toolbox           |
|  \\    /   O peration     | Version:  2406                                  |
|   \\  /    A nd           | Website:  www.openfoam.com                      |
|    \\/     M anipulation  |                                                 |
\*---------------------------------------------------------------------------*/
FoamFile
{
    version     2.0;
    format      ascii;
    arch        "LSB;label=32;scalar=64";
    class       volScalarField;
    location    "150";
    object      p;
}
// * * * * * * * * * * * * * * * * * * * * * * * * * * * * * * * * * * * * * //

dimensions      [0 2 -2 0 0 0 0];

internalField   nonuniform List<scalar> 
150000
(
241.176
134.036
77.0461
53.7579
40.4026
31.5888
25.8196
21.8444
18.8944
16.5847
14.7071
13.1353
11.7886
10.614
9.57446
8.64341
7.80106
7.03227
6.32526
5.67063
5.06083
4.48968
3.95207
3.44373
2.96108
2.50107
2.0611
1.63891
1.23257
0.840388
0.460877
0.0927331
-0.265195
-0.613932
-0.954388
-1.28738
-1.61364
-1.93384
-2.24856
-2.55835
-2.8637
-3.16507
-3.46286
-3.75747
-4.04923
-4.33846
-4.62548
-4.91057
-5.19397
-5.47594
-5.75671
-6.03649
-6.3155
-6.59392
-6.87195
-7.14977
-7.42754
-7.70545
-7.98365
-8.26231
-8.54158
-8.82162
-9.10258
-9.38462
-9.66789
-9.95255
-10.2388
-10.5267
-10.8165
-11.1083
-11.4024
-11.6989
-11.998
-12.2999
-12.6048
-12.913
-13.2247
-13.5401
-13.8596
-14.1834
-14.512
-14.8455
-15.1845
-15.5294
-15.8807
-16.239
-16.6049
-16.979
-17.3621
-17.7552
-18.1593
-18.5755
-19.0055
-19.4517
-19.9194
-20.4218
-20.9858
-21.6351
-22.4349
-24.3787
140.342
100.715
71.1211
54.5395
43.122
34.6728
28.6315
24.2414
20.9026
18.2675
16.1283
14.3482
12.835
11.5259
10.3765
9.35457
8.43619
7.60312
6.8412
6.13927
5.4884
4.88133
4.31209
3.77575
3.26817
2.78585
2.32582
1.88554
1.4628
1.0557
0.662575
0.28197
-0.0874008
-0.446673
-0.796857
-1.13885
-1.47347
-1.80143
-2.12339
-2.43994
-2.75162
-3.05892
-3.36228
-3.66213
-3.95883
-4.25274
-4.54418
-4.83345
-5.12083
-5.40658
-5.69095
-5.97417
-6.25646
-6.53803
-6.81908
-7.0998
-7.38038
-7.66098
-7.94179
-8.22298
-8.5047
-8.78713
-9.07042
-9.35474
-9.64025
-9.92711
-10.2155
-10.5056
-10.7975
-11.0915
-11.3877
-11.6863
-11.9875
-12.2916
-12.5987
-12.9092
-13.2231
-13.541
-13.8629
-14.1893
-14.5206
-14.857
-15.1991
-15.5474
-15.9024
-16.2648
-16.6352
-17.0146
-17.404
-17.8046
-18.218
-18.6461
-19.0919
-19.5593
-20.0551
-20.5911
-21.1855
-21.8653
-22.7346
-24.1736
91.8175
80.5849
65.936
53.7926
44.1787
36.5509
30.6733
26.1574
22.6134
19.7688
17.4397
15.496
13.8445
12.419
11.1715
10.0665
9.07719
8.18321
7.3686
6.62079
5.92971
5.28719
4.68653
4.1222
3.58956
3.08471
2.60435
2.14564
1.70614
1.28375
0.87663
0.483178
0.101981
-0.268206
-0.628488
-0.979849
-1.32317
-1.65924
-1.98877
-2.31239
-2.63071
-2.94423
-3.25346
-3.55882
-3.86073
-4.15956
-4.45565
-4.74934
-5.04092
-5.33066
-5.61884
-5.90569
-6.19146
-6.47635
-6.7606
-7.04438
-7.32791
-7.61136
-7.89492
-8.17877
-8.46307
-8.74801
-9.03375
-9.32045
-9.6083
-9.89745
-10.1881
-10.4804
-10.7745
-11.0707
-11.369
-11.6698
-11.9732
-12.2795
-12.5889
-12.9015
-13.2178
-13.538
-13.8624
-14.1913
-14.5252
-14.8644
-15.2095
-15.5609
-15.9193
-16.2854
-16.66
-17.0442
-17.439
-17.846
-18.267
-18.7047
-19.1622
-19.6442
-20.1571
-20.71
-21.3134
-21.9781
-22.7235
-23.5793
71.1842
67.5395
59.3162
50.5485
42.9666
36.5952
31.3434
27.0773
23.6023
20.7412
18.3564
16.3424
14.6188
13.1247
11.8144
10.6529
9.61318
8.67436
7.81988
7.03656
6.31378
5.64287
5.01672
4.42941
3.87599
3.35231
2.8548
2.38044
1.92663
1.4911
1.0719
0.667302
0.275803
-0.10393
-0.473075
-0.832684
-1.18369
-1.52694
-1.86319
-2.19312
-2.51734
-2.83643
-3.1509
-3.4612
-3.76778
-4.07103
-4.37132
-4.66899
-4.96434
-5.25768
-5.54928
-5.83941
-6.1283
-6.41619
-6.7033
-6.98984
-7.27601
-7.56201
-7.84803
-8.13425
-8.42085
-8.70801
-8.99591
-9.28471
-9.5746
-9.86575
-10.1583
-10.4525
-10.7486
-11.0466
-11.3468
-11.6494
-11.9546
-12.2626
-12.5738
-12.8882
-13.2063
-13.5283
-13.8545
-14.1853
-14.5211
-14.8623
-15.2094
-15.5629
-15.9235
-16.2919
-16.6689
-17.0556
-17.4531
-17.8629
-18.2868
-18.7271
-19.1865
-19.6683
-20.1762
-20.7138
-21.2817
-21.8735
-22.4677
-23.0166
58.533
57.2035
52.5409
46.5816
40.8862
35.7599
31.2605
27.4075
24.1435
21.3766
19.0193
16.9965
15.2456
13.716
12.3673
11.1675
10.0913
9.1184
8.23242
7.42023
6.67105
5.97606
5.32793
4.72056
4.1488
3.60831
3.09539
2.60686
2.14
1.69243
1.26209
0.847171
0.446093
0.0574518
-0.319994
-0.687348
-1.0456
-1.39563
-1.73824
-2.07414
-2.40398
-2.72836
-3.04782
-3.36284
-3.67388
-3.98136
-4.28565
-4.58711
-4.88608
-5.18286
-5.47774
-5.77099
-6.06287
-6.35361
-6.64345
-6.9326
-7.22128
-7.50969
-7.79802
-8.08647
-8.37522
-8.66445
-8.95435
-9.24509
-9.53685
-9.82982
-10.1242
-10.4201
-10.7178
-11.0174
-11.3192
-11.6233
-11.93
-12.2396
-12.5521
-12.868
-13.1875
-13.5108
-13.8383
-14.1704
-14.5075
-14.8498
-15.198
-15.5526
-15.9142
-16.2834
-16.661
-17.048
-17.4454
-17.8545
-18.2765
-18.7132
-19.166
-19.6363
-20.1247
-20.6294
-21.1441
-21.6532
-22.1259
-22.5105
49.8356
49.3867
46.7183
42.7245
38.5086
34.4519
30.6916
27.3149
24.3414
21.7428
19.4751
17.4927
15.7523
14.2156
12.8501
11.6284
10.528
9.53034
8.62011
7.78465
7.01349
6.2979
5.63058
5.00537
4.41707
3.86125
3.33413
2.83243
2.35334
1.89441
1.4535
1.02875
0.6185
0.221294
-0.16416
-0.539012
-0.904291
-1.26092
-1.60973
-1.95146
-2.28681
-2.61638
-2.94073
-3.26038
-3.57581
-3.88744
-4.19567
-4.50087
-4.80339
-5.10355
-5.40165
-5.69796
-5.99276
-6.28629
-6.57879
-6.87049
-7.1616
-7.45234
-7.7429
-8.03349
-8.32429
-8.61548
-8.90727
-9.19981
-9.49331
-9.78795
-10.0839
-10.3814
-10.6805
-10.9815
-11.2847
-11.5901
-11.898
-12.2087
-12.5224
-12.8393
-13.1597
-13.4839
-13.8122
-14.1449
-14.4825
-14.8252
-15.1736
-15.5282
-15.8894
-16.2579
-16.6343
-17.0193
-17.4138
-17.8186
-18.2345
-18.6621
-19.1018
-19.553
-20.0135
-20.4784
-20.9375
-21.3727
-21.7548
-22.0421
43.6535
43.5252
41.9096
39.1772
36.0519
32.8686
29.7772
26.8827
24.24
21.8601
19.7312
17.832
16.1374
14.6219
13.2616
12.035
10.9237
9.91152
8.98491
8.13232
7.34395
6.61151
5.92794
5.28723
4.68424
4.11457
3.57442
3.0605
2.56994
2.10027
1.64929
1.2151
0.795995
0.390481
-0.00277509
-0.38496
-0.757138
-1.12026
-1.47519
-1.8227
-2.16349
-2.49821
-2.82743
-3.15169
-3.47148
-3.78725
-4.0994
-4.40833
-4.71439
-5.01791
-5.3192
-5.61855
-5.91624
-6.21253
-6.50766
-6.80186
-7.09536
-7.38837
-7.68109
-7.97374
-8.2665
-8.55957
-8.85313
-9.14737
-9.44247
-9.73862
-10.036
-10.3348
-10.6352
-10.9375
-11.2417
-11.5481
-11.857
-12.1685
-12.4829
-12.8004
-13.1212
-13.4458
-13.7742
-14.107
-14.4443
-14.7865
-15.1341
-15.4875
-15.847
-16.2131
-16.5864
-16.9673
-17.3563
-17.7537
-18.1597
-18.5741
-18.9961
-19.4236
-19.8527
-20.2766
-20.684
-21.0577
-21.3734
-21.6009
39.0083
38.9791
37.9305
36.0071
33.6701
31.1741
28.6523
26.2047
23.8967
21.7591
19.8005
18.0171
16.3984
14.9299
13.5963
12.3825
11.2743
10.2588
9.32478
8.46211
7.66211
6.91721
6.22088
5.56743
4.95194
4.37015
3.81835
3.29329
2.79213
2.31239
1.85188
1.40866
0.981028
0.567452
0.166579
-0.222804
-0.601783
-0.971335
-1.33234
-1.6856
-2.03184
-2.37171
-2.70582
-3.03471
-3.35888
-3.67881
-3.99491
-4.30759
-4.61721
-4.92411
-5.22861
-5.53102
-5.83161
-6.13065
-6.42839
-6.72507
-7.02092
-7.31617
-7.61101
-7.90567
-8.20032
-8.49518
-8.79042
-9.08624
-9.38282
-9.68035
-9.97901
-10.279
-10.5805
-10.8837
-11.1887
-11.4959
-11.8054
-12.1173
-12.432
-12.7497
-13.0706
-13.3949
-13.7229
-14.0549
-14.3912
-14.7321
-15.0778
-15.4288
-15.7853
-16.1476
-16.516
-16.8908
-17.2719
-17.6594
-18.0528
-18.4512
-18.8528
-19.2546
-19.6518
-20.0369
-20.399
-20.7233
-20.9909
-21.1804
35.3456
35.3418
34.6185
33.2234
31.4502
29.4815
27.4255
25.3684
23.3739
21.4797
19.7051
18.0575
16.5362
15.1358
13.8481
12.6637
11.5727
10.5659
9.63409
8.76931
7.96416
7.21207
6.50723
5.84447
5.21925
4.62757
4.06591
3.53114
3.02053
2.53164
2.06232
1.61066
1.17494
0.753646
0.345418
-0.0509661
-0.436605
-0.81249
-1.17952
-1.5385
-1.89016
-2.2352
-2.5742
-2.90775
-3.23634
-3.56047
-3.88056
-4.19703
-4.51025
-4.82057
-5.12831
-5.4338
-5.73731
-6.03911
-6.33948
-6.63864
-6.93684
-7.2343
-7.53123
-7.82784
-8.12434
-8.42091
-8.71775
-9.01505
-9.31299
-9.61176
-9.91154
-10.2125
-10.5149
-10.8188
-11.1245
-11.4321
-11.7418
-12.0539
-12.3686
-12.686
-13.0063
-13.3299
-13.6569
-13.9875
-14.322
-14.6606
-15.0036
-15.3511
-15.7033
-16.0604
-16.4225
-16.7894
-17.161
-17.5368
-17.9158
-18.2965
-18.6766
-19.0526
-19.4193
-19.7694
-20.0932
-20.3785
-20.611
-20.776
32.3604
32.3606
31.8357
30.7931
29.4235
27.8552
26.172
24.4447
22.7297
21.0648
19.4738
17.9697
16.5585
15.2407
14.0138
12.8729
11.8122
10.8252
9.90556
9.04709
8.2439
7.49059
6.78222
6.11428
5.48276
4.88403
4.31484
3.77229
3.2538
2.75705
2.27998
1.82071
1.3776
0.949142
0.534001
0.130964
-0.261065
-0.643074
-1.01596
-1.38055
-1.73757
-2.08771
-2.43159
-2.76978
-3.1028
-3.43115
-3.75525
-4.07553
-4.39238
-4.70614
-5.01716
-5.32574
-5.63219
-5.93678
-6.23978
-6.54142
-6.84196
-7.14161
-7.44059
-7.73913
-8.0374
-8.33563
-8.63399
-8.93267
-9.23186
-9.53174
-9.83249
-10.1343
-10.4373
-10.7418
-11.0478
-11.3556
-11.6653
-11.9772
-12.2914
-12.6081
-12.9274
-13.2497
-13.575
-13.9036
-14.2356
-14.5712
-14.9105
-15.2536
-15.6005
-15.9513
-16.3058
-16.6637
-17.0244
-17.3873
-17.7509
-18.1134
-18.4721
-18.8234
-19.1621
-19.4816
-19.7736
-20.0284
-20.2352
-20.3839
29.8682
29.8672
29.4702
28.6691
27.5916
26.3275
24.9401
23.4859
22.0127
20.5552
19.1377
17.7759
16.4792
15.2521
14.0957
13.0088
11.9886
11.0313
10.1328
9.28876
8.49467
7.74637
7.03985
6.37137
5.73749
5.13506
4.5612
4.01328
3.48894
2.98604
2.50264
2.03697
1.58747
1.15268
0.731319
0.322198
-0.075751
-0.463502
-0.841943
-1.21188
-1.57406
-1.92916
-2.27779
-2.62053
-2.95791
-3.29042
-3.6185
-3.94257
-4.26303
-4.58023
-4.89451
-5.2062
-5.51558
-5.82294
-6.12855
-6.43266
-6.73551
-7.03733
-7.33833
-7.63873
-7.93874
-8.23854
-8.53833
-8.83829
-9.13861
-9.43947
-9.74104
-10.0435
-10.347
-10.6517
-10.9579
-11.2656
-11.575
-11.8863
-12.1997
-12.5152
-12.8332
-13.1537
-13.4768
-13.8028
-14.1316
-14.4635
-14.7983
-15.1362
-15.477
-15.8206
-16.1666
-16.5146
-16.8637
-17.2131
-17.561
-17.9055
-18.2437
-18.5721
-18.8858
-19.1791
-19.4451
-19.676
-19.8639
-20.0018
27.7492
27.7463
27.4362
26.8054
25.9426
24.9112
23.7581
22.5281
21.2604
19.9857
18.7267
17.4998
16.3158
15.1816
14.1007
13.0744
12.102
11.1821
10.3122
9.4895
8.71104
7.97367
7.27433
6.61004
5.978
5.37553
4.80019
4.24967
3.7219
3.21492
2.72698
2.25646
1.80188
1.36189
0.935271
0.52089
0.117719
-0.275181
-0.658671
-1.03354
-1.40052
-1.76027
-2.1134
-2.46049
-2.80206
-3.13858
-3.47052
-3.79828
-4.12227
-4.44283
-4.76032
-5.07504
-5.38731
-5.6974
-6.00558
-6.3121
-6.61721
-6.92114
-7.2241
-7.5263
-7.82795
-8.12924
-8.43036
-8.7315
-9.03282
-9.33451
-9.63674
-9.93967
-10.2435
-10.5483
-10.8543
-11.1616
-11.4704
-11.7809
-12.0931
-12.4072
-12.7233
-13.0416
-13.3621
-13.6849
-14.01
-14.3375
-14.6673
-14.9993
-15.3334
-15.6691
-16.0061
-16.3436
-16.6809
-17.0166
-17.3491
-17.6763
-17.9954
-18.303
-18.5949
-18.866
-19.1107
-19.323
-19.497
-19.6278
25.9216
25.9174
25.6689
25.1617
24.4595
23.6076
22.6409
21.5942
20.4997
19.3836
18.2663
17.1636
16.0868
15.0436
14.0393
13.0764
12.1562
11.2787
10.4428
9.64713
8.88972
8.16846
7.48114
6.82551
6.19935
5.60053
5.02701
4.47685
3.94825
3.43952
2.94909
2.47551
2.01744
1.57365
1.14298
0.724402
0.316935
-0.0803075
-0.468147
-0.84734
-1.21859
-1.58253
-1.93977
-2.29085
-2.6363
-2.97659
-3.31215
-3.64341
-3.97075
-4.29452
-4.61507
-4.93272
-5.24775
-5.56047
-5.87112
-6.17996
-6.48724
-6.79318
-7.09799
-7.4019
-7.70508
-8.00775
-8.31009
-8.61226
-8.91445
-9.21683
-9.51955
-9.82278
-10.1267
-10.4313
-10.737
-11.0437
-11.3516
-11.6609
-11.9716
-12.2839
-12.5978
-12.9135
-13.2309
-13.5501
-13.8711
-14.1938
-14.5181
-14.8438
-15.1706
-15.4981
-15.8257
-16.1527
-16.478
-16.8004
-17.1181
-17.4291
-17.7307
-18.0199
-18.2928
-18.5453
-18.7729
-18.9707
-19.1344
-19.2606
24.3273
24.3225
24.1193
23.704
23.124
22.4122
21.5944
20.6981
19.749
18.7692
17.7769
16.7865
15.809
14.8525
13.9229
13.0238
12.1576
11.3253
10.5269
9.76211
9.02984
8.32882
7.65756
7.01446
6.39786
5.80611
5.23757
4.69067
4.16389
3.6558
3.16504
2.69035
2.23054
1.7845
1.35119
0.929653
0.519001
0.118404
-0.272906
-0.655641
-1.03046
-1.39799
-1.75879
-2.11339
-2.46229
-2.80595
-3.1448
-3.47925
-3.80967
-4.13641
-4.4598
-4.78017
-5.09779
-5.41295
-5.72591
-6.03692
-6.34622
-6.65403
-6.96056
-7.26603
-7.57062
-7.87452
-8.17792
-8.48098
-8.78388
-9.08677
-9.3898
-9.69314
-9.99691
-10.3012
-10.6063
-10.9122
-11.219
-11.5268
-11.8357
-12.1459
-12.4573
-12.77
-13.084
-13.3992
-13.7157
-14.0333
-14.3517
-14.6708
-14.9901
-15.3092
-15.6274
-15.9439
-16.2576
-16.5672
-16.871
-17.1671
-17.453
-17.7259
-17.9826
-18.2196
-18.4332
-18.6198
-18.7761
-18.8994
22.9235
22.9184
22.7496
22.4043
21.9188
21.3176
20.6199
19.847
19.02
18.1571
17.2742
16.384
15.4971
14.6214
13.763
12.9261
12.1137
11.3275
10.5685
9.83697
9.13262
8.45484
7.80276
7.17532
6.57134
5.98961
5.42887
4.88787
4.3654
3.86026
3.37131
2.89748
2.43772
1.99107
1.55661
1.13348
0.720869
0.318032
-0.0757403
-0.461107
-0.838684
-1.20905
-1.57273
-1.93025
-2.28205
-2.6286
-2.97029
-3.30752
-3.64065
-3.97002
-4.29595
-4.61875
-4.9387
-5.25607
-5.57111
-5.88408
-6.19519
-6.50468
-6.81275
-7.11959
-7.4254
-7.73036
-8.03464
-8.33841
-8.64183
-8.94505
-9.24821
-9.55145
-9.8549
-10.1587
-10.4629
-10.7677
-11.0731
-11.3792
-11.6862
-11.9939
-12.3025
-12.612
-12.9223
-13.2333
-13.545
-13.8572
-14.1696
-14.4819
-14.7936
-15.1043
-15.4132
-15.7195
-16.0221
-16.3197
-16.6106
-16.8931
-17.1649
-17.4237
-17.6666
-17.8908
-18.0932
-18.2711
-18.4219
-18.5438
21.6778
21.6728
21.5305
21.2396
20.8284
20.3154
19.7152
19.0445
18.32
17.5573
16.7696
15.9684
15.1633
14.3619
13.5701
12.7925
12.0323
11.2919
10.5727
9.8756
9.20079
8.54821
7.91749
7.30802
6.71906
6.14974
5.59916
5.06636
4.55039
4.05029
3.56512
3.09399
2.63602
2.19038
1.75626
1.33292
0.91963
0.515728
0.120572
-0.266436
-0.64586
-1.01823
-1.38404
-1.74377
-2.09785
-2.44669
-2.79069
-3.13021
-3.4656
-3.79718
-4.12527
-4.45014
-4.77208
-5.09135
-5.40819
-5.72284
-6.03552
-6.34644
-6.6558
-6.9638
-7.27061
-7.57641
-7.88137
-8.18564
-8.48937
-8.79271
-9.09579
-9.39873
-9.70165
-10.0047
-10.3079
-10.6113
-10.9151
-11.2193
-11.524
-11.8291
-12.1347
-12.4407
-12.7471
-13.0537
-13.3605
-13.6671
-13.9734
-14.2788
-14.5831
-14.8855
-15.1855
-15.482
-15.774
-16.0604
-16.3396
-16.6098
-16.8693
-17.1158
-17.347
-17.5605
-17.754
-17.9252
-18.0721
-18.1936
20.5652
20.5605
20.4391
20.1911
19.8392
19.3974
18.877
18.2911
17.6532
16.9761
16.2713
15.5488
14.8171
14.0833
13.3532
12.6313
11.9211
11.2251
10.5452
9.8826
9.23799
8.61168
8.00368
7.41377
6.84153
6.28644
5.74786
5.22511
4.71747
4.2242
3.74455
3.27779
2.82319
2.38005
1.94769
1.52546
1.11274
0.708942
0.313491
-0.0741459
-0.454475
-0.827978
-1.19511
-1.55629
-1.91194
-2.26244
-2.60815
-2.94941
-3.28654
-3.61986
-3.94965
-4.27619
-4.59973
-4.92054
-5.23883
-5.55484
-5.86878
-6.18085
-6.49123
-6.80011
-7.10767
-7.41407
-7.71947
-8.02401
-8.32783
-8.63107
-8.93384
-9.23626
-9.53843
-9.84045
-10.1424
-10.4443
-10.7463
-11.0484
-11.3506
-11.6529
-11.9553
-12.2577
-12.56
-12.8621
-13.1638
-13.4649
-13.7649
-14.0637
-14.3606
-14.655
-14.9463
-15.2336
-15.5158
-15.7919
-16.0604
-16.3198
-16.5683
-16.8043
-17.0256
-17.2304
-17.4166
-17.5827
-17.727
-17.8487
19.566
19.5616
19.457
19.2434
18.9392
18.5557
18.1011
17.586
17.0214
16.4179
15.7852
15.132
14.4659
13.7934
13.1199
12.4498
11.7867
11.1332
10.4914
9.86273
9.24825
8.64856
8.06397
7.49455
6.94017
6.40056
5.87535
5.36407
4.86621
4.38122
3.90853
3.44754
2.99768
2.55837
2.12905
1.70916
1.29817
0.895571
0.500866
0.113584
-0.266725
-0.64049
-1.00812
-1.37
-1.7265
-2.07798
-2.42476
-2.76717
-3.10549
-3.44003
-3.77104
-4.09879
-4.42351
-4.74545
-5.06482
-5.38183
-5.69668
-6.00957
-6.32067
-6.63015
-6.93817
-7.2449
-7.55047
-7.85503
-8.15869
-8.46159
-8.76382
-9.0655
-9.3667
-9.66752
-9.96801
-10.2682
-10.5682
-10.868
-11.1675
-11.4669
-11.7659
-12.0645
-12.3627
-12.6602
-12.9568
-13.2523
-13.5463
-13.8385
-14.1282
-14.415
-14.6981
-14.9768
-15.2499
-15.5165
-15.7754
-16.0251
-16.2642
-16.491
-16.7041
-16.9016
-17.0821
-17.2442
-17.3868
-17.5092
18.6644
18.6603
18.5694
18.3837
18.1186
17.7828
17.3831
16.9275
16.4252
15.885
15.3151
14.7229
14.1153
13.4981
12.8763
12.2541
11.635
11.0217
10.4163
9.82057
9.23566
8.66241
8.10138
7.55286
7.01696
6.49364
5.98271
5.48391
4.99691
4.52132
4.05672
3.60265
3.15868
2.72433
2.29914
1.88265
1.47443
1.07402
0.681017
0.295002
-0.0844156
-0.457614
-0.824955
-1.18679
-1.54344
-1.89522
-2.24245
-2.58541
-2.92436
-3.25958
-3.59131
-3.91978
-4.24524
-4.56788
-4.88792
-5.20555
-5.52096
-5.83432
-6.1458
-6.45556
-6.76375
-7.07052
-7.37599
-7.68029
-7.98355
-8.28586
-8.58732
-8.88802
-9.18804
-9.48744
-9.78628
-10.0846
-10.3824
-10.6797
-10.9764
-11.2726
-11.5682
-11.863
-12.1569
-12.4498
-12.7414
-13.0314
-13.3195
-13.6052
-13.8882
-14.1677
-14.4431
-14.7137
-14.9785
-15.2366
-15.4868
-15.7279
-15.9587
-16.1778
-16.3838
-16.5754
-16.7513
-16.9105
-17.0521
-17.1756
17.8476
17.8438
17.7641
17.6013
17.3684
17.0724
16.7185
16.3134
15.8643
15.3787
14.8634
14.3251
13.7696
13.2021
12.6274
12.0492
11.471
10.8954
10.3246
9.76038
9.20408
8.65671
8.11899
7.59139
7.07421
6.56758
6.07148
5.58583
5.11043
4.64505
4.18939
3.74314
3.30595
2.87747
2.45732
2.04514
1.64056
1.24321
0.852749
0.468816
0.0910756
-0.280799
-0.647125
-1.00821
-1.36434
-1.7158
-2.06286
-2.40579
-2.74482
-3.08019
-3.41214
-3.74087
-4.0666
-4.38952
-4.70982
-5.02767
-5.34326
-5.65674
-5.96827
-6.27799
-6.58603
-6.89254
-7.19763
-7.50142
-7.804
-8.10547
-8.40593
-8.70543
-9.00405
-9.30184
-9.59883
-9.89505
-10.1905
-10.4852
-10.779
-11.072
-11.364
-11.6549
-11.9446
-12.2329
-12.5195
-12.8041
-13.0865
-13.3661
-13.6425
-13.9152
-14.1834
-14.4465
-14.7037
-14.954
-15.1965
-15.4301
-15.6537
-15.8661
-16.0662
-16.2529
-16.4251
-16.5821
-16.7232
-16.8479
17.1051
17.1016
17.0312
16.8874
16.6813
16.4187
16.1035
15.7411
15.3377
14.8993
14.4319
13.941
13.4319
12.9092
12.3771
11.8393
11.2988
10.7584
10.2202
9.68592
9.15708
8.63476
8.11981
7.61285
7.11431
6.62447
6.14346
5.67132
5.20799
4.75336
4.30726
3.86947
3.43975
3.01784
2.60345
2.1963
1.7961
1.40253
1.01532
0.634171
0.258794
-0.11109
-0.475753
-0.835458
-1.19046
-1.54101
-1.88735
-2.2297
-2.56829
-2.90332
-3.235
-3.56354
-3.8891
-4.21187
-4.53203
-4.84973
-5.16513
-5.47838
-5.78961
-6.09897
-6.40657
-6.71253
-7.01695
-7.31995
-7.62161
-7.92201
-8.22122
-8.51931
-8.81633
-9.11231
-9.40729
-9.70126
-9.99421
-10.2861
-10.577
-10.8666
-11.1551
-11.4421
-11.7276
-12.0113
-12.293
-12.5724
-12.8492
-13.123
-13.3932
-13.6594
-13.921
-14.1772
-14.4274
-14.6708
-14.9064
-15.1333
-15.3506
-15.5573
-15.7524
-15.935
-16.1043
-16.2597
-16.4006
-16.5268
16.4281
16.4249
16.3623
16.2344
16.0509
15.8163
15.534
15.2082
14.8441
14.4468
14.0212
13.5722
13.1044
12.6219
12.1285
11.6275
11.1219
10.6142
10.1065
9.60051
9.09781
8.59953
8.10663
7.6198
7.13961
6.66643
6.20052
5.74203
5.29101
4.84746
4.4113
3.98242
3.56066
3.14585
2.73777
2.33622
1.94096
1.55176
1.16839
0.790604
0.418166
0.0508423
-0.311598
-0.669379
-1.02272
-1.37184
-1.71695
-2.05823
-2.3959
-2.73014
-3.06112
-3.38902
-3.71401
-4.03624
-4.35587
-4.67305
-4.98792
-5.3006
-5.61122
-5.9199
-6.22675
-6.53188
-6.83538
-7.13733
-7.43782
-7.73691
-8.03467
-8.33114
-8.62637
-8.92037
-9.21317
-9.50475
-9.7951
-10.0842
-10.3719
-10.6582
-10.943
-11.2261
-11.5074
-11.7867
-12.0636
-12.338
-12.6095
-12.8776
-13.1421
-13.4022
-13.6576
-13.9075
-14.1514
-14.3884
-14.6179
-14.8389
-15.0507
-15.2524
-15.4433
-15.6226
-15.7896
-15.9438
-16.0848
-16.2124
15.8094
15.8065
15.7505
15.636
15.4715
15.2609
15.0066
14.7123
14.3822
14.0206
13.6317
13.2198
12.7888
12.3424
11.884
11.4167
10.9431
10.4656
9.98636
9.50701
9.02906
8.55372
8.08199
7.61465
7.15233
6.69551
6.24454
5.79965
5.36101
4.92867
4.50268
4.08298
3.6695
3.26215
2.86078
2.46524
2.07537
1.691
1.31192
0.937971
0.568943
0.20465
-0.155099
-0.510493
-0.861719
-1.20896
-1.55239
-1.89218
-2.22851
-2.56154
-2.89142
-3.21831
-3.54235
-3.86368
-4.18245
-4.49877
-4.81277
-5.12457
-5.43428
-5.742
-6.04783
-6.35186
-6.65418
-6.95485
-7.25394
-7.55152
-7.84762
-8.14229
-8.43555
-8.72742
-9.0179
-9.30697
-9.5946
-9.88074
-10.1653
-10.4483
-10.7294
-11.0087
-11.2859
-11.5607
-11.8331
-12.1026
-12.369
-12.6318
-12.8908
-13.1453
-13.3949
-13.639
-13.8771
-14.1084
-14.3324
-14.5482
-14.7552
-14.9526
-15.1399
-15.3164
-15.4815
-15.6348
-15.7761
-15.9051
15.2429
15.2402
15.1897
15.0867
14.9384
14.7482
14.518
14.2509
13.9503
13.62
13.2635
12.8844
12.4862
12.0723
11.6455
11.2088
10.7646
10.3151
9.8623
9.40787
8.95325
8.49968
8.04817
7.59956
7.15454
6.71365
6.27731
5.84585
5.41948
4.99837
4.58261
4.17222
3.76722
3.36755
2.97315
2.58393
2.19977
1.82055
1.44613
1.07638
0.711133
0.350249
-0.00642991
-0.359057
-0.707785
-1.05277
-1.39415
-1.73209
-2.06672
-2.39818
-2.72662
-3.05215
-3.37491
-3.69503
-4.01261
-4.32777
-4.64062
-4.95126
-5.25979
-5.56629
-5.87085
-6.17355
-6.47445
-6.77362
-7.07112
-7.36698
-7.66125
-7.95396
-8.24511
-8.53471
-8.82275
-9.10921
-9.39404
-9.6772
-9.95859
-10.2381
-10.5157
-10.7911
-11.0642
-11.3348
-11.6027
-11.8676
-12.1291
-12.3869
-12.6407
-12.89
-13.1343
-13.3731
-13.6059
-13.832
-14.051
-14.2622
-14.465
-14.6587
-14.8429
-15.017
-15.1806
-15.3333
-15.4749
-15.6054
14.7232
14.7208
14.6751
14.5819
14.4475
14.2748
14.0655
13.8219
13.5471
13.2441
12.9161
12.5661
12.1973
11.8125
11.4144
11.0056
10.5883
10.1646
9.73635
9.30517
8.87247
8.43946
8.00717
7.57647
7.14808
6.7226
6.30051
5.88217
5.4679
5.0579
4.65232
4.25128
3.85482
3.46296
3.07569
2.69297
2.31473
1.94091
1.5714
1.20612
0.844937
0.487754
0.134445
-0.215111
-0.561036
-0.903454
-1.24249
-1.57826
-1.91089
-2.24049
-2.56718
-2.89108
-3.21228
-3.5309
-3.84703
-4.16077
-4.47221
-4.78144
-5.08855
-5.3936
-5.69667
-5.99782
-6.29711
-6.5946
-6.89032
-7.1843
-7.47659
-7.76718
-8.05609
-8.34331
-8.62882
-8.91259
-9.19456
-9.47469
-9.75287
-10.029
-10.303
-10.5746
-10.8438
-11.1103
-11.3739
-11.6342
-11.8911
-12.1442
-12.3932
-12.6375
-12.8769
-13.1108
-13.3387
-13.5603
-13.7748
-13.9819
-14.1809
-14.3714
-14.5529
-14.7249
-14.8872
-15.0395
-15.1815
-15.3133
14.2461
14.2438
14.2023
14.1174
13.995
13.8376
13.6463
13.4232
13.1709
12.892
12.5892
12.2651
11.9225
11.5639
11.1918
10.8083
10.4156
10.0157
9.6102
9.20068
8.78851
8.37486
7.96077
7.54712
7.13465
6.72399
6.31566
5.91009
5.50763
5.10853
4.71302
4.32125
3.93331
3.54929
3.16922
2.7931
2.42092
2.05264
1.68822
1.3276
0.970693
0.617427
0.267715
-0.0785351
-0.421417
-0.761028
-1.09746
-1.43082
-1.7612
-2.0887
-2.41341
-2.73542
-3.05482
-3.37171
-3.68616
-3.99825
-4.30807
-4.61569
-4.92116
-5.22457
-5.52596
-5.82539
-6.1229
-6.41853
-6.71232
-7.00429
-7.29445
-7.58282
-7.86938
-8.15413
-8.43703
-8.71805
-8.99714
-9.27421
-9.54918
-9.82196
-10.0924
-10.3604
-10.6257
-10.8882
-11.1476
-11.4037
-11.6562
-11.9048
-12.1492
-12.3889
-12.6237
-12.8531
-13.0767
-13.2939
-13.5045
-13.7078
-13.9035
-14.0911
-14.2702
-14.4405
-14.6018
-14.7537
-14.8961
-15.0291
13.8075
13.8054
13.7674
13.6899
13.5779
13.4336
13.258
13.0529
12.8204
12.5627
12.2822
11.9812
11.6621
11.3271
10.9784
10.618
10.2478
9.86974
9.48527
9.09589
8.70289
8.30742
7.91051
7.51302
7.11571
6.71924
6.32416
5.93094
5.53994
5.15149
4.76584
4.38319
4.0037
3.62747
3.25458
2.88509
2.51903
2.15639
1.79716
1.44132
1.08883
0.739632
0.39368
0.0509085
-0.28875
-0.625367
-0.959014
-1.28977
-1.6177
-1.9429
-2.26542
-2.58535
-2.90276
-3.21773
-3.53031
-3.84057
-4.14859
-4.45441
-4.75809
-5.05968
-5.35923
-5.65678
-5.95237
-6.24602
-6.53775
-6.82759
-7.11553
-7.40157
-7.68571
-7.96792
-8.24817
-8.5264
-8.80257
-9.07659
-9.34837
-9.61781
-9.88478
-10.1491
-10.4107
-10.6693
-10.9247
-11.1767
-11.4251
-11.6694
-11.9095
-12.145
-12.3756
-12.6008
-12.8203
-13.0337
-13.2406
-13.4405
-13.6332
-13.8183
-13.9953
-14.1641
-14.3244
-14.476
-14.6188
-14.7528
13.4043
13.4023
13.3674
13.2962
13.1933
13.0605
12.8986
12.7093
12.4942
12.2553
11.9946
11.7142
11.4161
11.1023
10.7748
10.4354
10.0859
9.72781
9.36275
8.99204
8.61691
8.23847
7.85771
7.4755
7.0926
6.70967
6.32727
5.94591
5.566
5.18788
4.81184
4.43812
4.06691
3.69837
3.33261
2.96973
2.60977
2.25279
1.8988
1.54781
1.19981
0.854788
0.512708
0.173536
-0.16277
-0.496256
-0.826973
-1.15497
-1.48031
-1.80305
-2.12324
-2.44094
-2.7562
-3.06909
-3.37965
-3.68793
-3.99399
-4.29788
-4.59962
-4.89927
-5.19686
-5.49241
-5.78595
-6.07751
-6.36709
-6.6547
-6.94034
-7.22399
-7.50565
-7.78527
-8.06282
-8.33825
-8.6115
-8.88248
-9.1511
-9.41726
-9.68083
-9.94167
-10.1996
-10.4545
-10.7061
-10.9542
-11.1985
-11.4389
-11.675
-11.9065
-12.1331
-12.3544
-12.5702
-12.78
-12.9835
-13.1805
-13.3705
-13.5532
-13.7284
-13.8958
-14.0552
-14.2066
-14.3497
-14.4847
13.0335
13.0316
12.9995
12.9337
12.8387
12.716
12.5662
12.3907
12.191
11.9687
11.7257
11.4636
11.1844
10.8898
10.5815
10.2611
9.93041
9.59077
9.2436
8.89018
8.53168
8.16915
7.80355
7.43574
7.06647
6.6964
6.32611
5.95612
5.58686
5.21871
4.85198
4.48695
4.12384
3.76284
3.4041
3.04773
2.69384
2.34249
1.99374
1.64762
1.30415
0.96335
0.625206
0.289709
-0.0431582
-0.37342
-0.701105
-1.02625
-1.34888
-1.66905
-1.98678
-2.30213
-2.61513
-2.92582
-3.23424
-3.54043
-3.84442
-4.14625
-4.44595
-4.74355
-5.03907
-5.33253
-5.62394
-5.91333
-6.20068
-6.48599
-6.76927
-7.05049
-7.32962
-7.60663
-7.88147
-8.1541
-8.42443
-8.6924
-8.95791
-9.22085
-9.48109
-9.73851
-9.99294
-10.2442
-10.4921
-10.7365
-10.9771
-11.2137
-11.446
-11.6737
-11.8966
-12.1144
-12.3267
-12.5332
-12.7337
-12.9279
-13.1154
-13.296
-13.4695
-13.6356
-13.7943
-13.9454
-14.0888
-14.2246
12.6925
12.6908
12.661
12.6001
12.512
12.3981
12.259
12.0957
11.9096
11.7021
11.4748
11.2292
10.9669
10.6895
10.3986
10.0956
9.78209
9.45933
9.12863
8.79119
8.44813
8.10043
7.74903
7.39475
7.03834
6.68045
6.32167
5.96253
5.60348
5.24491
4.88717
4.53056
4.17531
3.82166
3.46977
3.11981
2.77189
2.42611
2.08256
1.74129
1.40235
1.06578
0.731598
0.399815
0.0704349
-0.256545
-0.581134
-0.903346
-1.2232
-1.54071
-1.85591
-2.16882
-2.47946
-2.78787
-3.09406
-3.39806
-3.6999
-3.9996
-4.29717
-4.59264
-4.88602
-5.17731
-5.46653
-5.75368
-6.03875
-6.32173
-6.6026
-6.88135
-7.15793
-7.43232
-7.70446
-7.97429
-8.24175
-8.50674
-8.76919
-9.02897
-9.28598
-9.54007
-9.79111
-10.0389
-10.2833
-10.5242
-10.7612
-10.9942
-11.2229
-11.4471
-11.6666
-11.881
-12.0901
-12.2936
-12.4913
-12.6828
-12.8681
-13.0468
-13.2187
-13.3836
-13.5416
-13.6924
-13.836
-13.9725
12.3793
12.3777
12.35
12.2933
12.2113
12.1053
11.9755
11.823
11.649
11.4547
11.2414
11.0105
10.7634
10.5016
10.2264
9.93922
9.64134
9.33404
9.01849
8.69581
8.36705
8.03316
7.69502
7.35342
7.0091
6.66272
6.31485
5.96603
5.61672
5.26733
4.91822
4.56971
4.22207
3.87554
3.53034
3.18662
2.84455
2.50425
2.16581
1.82934
1.4949
1.16254
0.832311
0.504247
0.17837
-0.145302
-0.466761
-0.786002
-1.10303
-1.41784
-1.73045
-2.04086
-2.34909
-2.65514
-2.95904
-3.2608
-3.56042
-3.85792
-4.1533
-4.44658
-4.73776
-5.02684
-5.31382
-5.59869
-5.88144
-6.16206
-6.44051
-6.71677
-6.99081
-7.26258
-7.53203
-7.79909
-8.0637
-8.32577
-8.58522
-8.84193
-9.09579
-9.34667
-9.59443
-9.83893
-10.08
-10.3174
-10.551
-10.7806
-11.006
-11.2269
-11.4431
-11.6544
-11.8605
-12.0612
-12.2562
-12.4454
-12.6286
-12.8054
-12.9759
-13.1398
-13.297
-13.4475
-13.5912
-13.7283
12.0919
12.0903
12.0645
12.0115
11.9349
11.8357
11.7143
11.5714
11.4081
11.2255
11.0247
10.807
10.5737
10.3259
10.065
9.7921
9.50851
9.21535
8.91371
8.60465
8.28912
7.96804
7.64225
7.31252
6.97955
6.644
6.30644
5.9674
5.62734
5.2867
4.94585
4.60512
4.26481
3.92516
3.58642
3.24878
2.9124
2.57745
2.24403
1.91227
1.58226
1.25406
0.927758
0.603392
0.281008
-0.0393572
-0.357678
-0.673933
-0.988107
-1.30019
-1.61017
-1.91805
-2.22383
-2.5275
-2.82906
-3.12853
-3.42589
-3.72115
-4.01431
-4.30537
-4.59432
-4.88115
-5.16586
-5.44843
-5.72885
-6.00708
-6.2831
-6.55689
-6.82839
-7.09755
-7.36434
-7.62867
-7.89048
-8.14968
-8.40619
-8.65991
-8.91071
-9.15849
-9.4031
-9.6444
-9.88223
-10.1164
-10.3468
-10.5732
-10.7954
-11.0131
-11.2263
-11.4346
-11.638
-11.836
-12.0286
-12.2156
-12.3968
-12.5719
-12.741
-12.9038
-13.0604
-13.2105
-13.3543
-13.4918
11.8284
11.827
11.8028
11.7532
11.6813
11.5882
11.4741
11.3398
11.186
11.0138
10.8243
10.6184
10.3974
10.1623
9.91425
9.6544
9.38383
9.10361
8.81474
8.5182
8.2149
7.90569
7.59138
7.27271
6.95037
6.62498
6.29713
5.96732
5.63604
5.30372
4.97074
4.63745
4.30415
3.97113
3.63862
3.30684
2.97599
2.64623
2.31771
1.99056
1.66488
1.34078
1.01834
0.697623
0.378699
0.0616175
-0.253579
-0.566855
-0.878178
-1.18752
-1.49487
-1.80021
-2.10351
-2.40477
-2.70399
-3.00114
-3.29621
-3.58921
-3.88013
-4.16894
-4.45564
-4.74021
-5.02264
-5.3029
-5.58097
-5.85683
-6.13043
-6.40174
-6.67072
-6.93732
-7.20147
-7.46311
-7.72218
-7.97858
-8.23223
-8.48303
-8.73088
-8.97565
-9.21722
-9.45546
-9.6902
-9.92131
-10.1486
-10.3719
-10.5911
-10.8059
-11.0162
-11.2218
-11.4225
-11.6181
-11.8084
-11.9933
-12.1726
-12.3462
-12.5139
-12.6757
-12.8315
-12.9813
-13.125
-13.2628
11.5876
11.5862
11.5634
11.5167
11.4491
11.3614
11.2539
11.1271
10.9818
10.819
10.6395
10.4443
10.2343
10.0106
9.77426
9.52622
9.26751
8.99909
8.72192
8.43688
8.14484
7.84662
7.54296
7.23459
6.92216
6.60628
6.28753
5.96642
5.64343
5.31898
4.99348
4.66726
4.34067
4.01398
3.68745
3.36133
3.0358
2.71107
2.3873
2.06462
1.74318
1.42308
1.10442
0.787294
0.471778
0.157937
-0.15417
-0.464491
-0.772982
-1.07961
-1.38433
-1.68712
-1.98795
-2.2868
-2.58365
-2.87848
-3.17127
-3.462
-3.75065
-4.03721
-4.32166
-4.60396
-4.88411
-5.16206
-5.4378
-5.71129
-5.98249
-6.25136
-6.51784
-6.7819
-7.04346
-7.30247
-7.55885
-7.81251
-8.06338
-8.31136
-8.55634
-8.79821
-9.03685
-9.27214
-9.50393
-9.73208
-9.95645
-10.1769
-10.3932
-10.6052
-10.8128
-11.0157
-11.2139
-11.4072
-11.5954
-11.7783
-11.9558
-12.1279
-12.2943
-12.4551
-12.6102
-12.7596
-12.9032
-13.0411