/*--------------------------------*- C++ -*----------------------------------*\
| =========                 |                                                 |
| \\      /  F ield         | OpenFOAM: The Open Source CFD Toolbox           |
|  \\    /   O peration     | Version:  2406                                  |
|   \\  /    A nd           | Website:  www.openfoam.com                      |
|    \\/     M anipulation  |                                                 |
\*---------------------------------------------------------------------------*/
FoamFile
{
    version     2.0;
    format      ascii;
    arch        "LSB;label=32;scalar=64";
    class       surfaceScalarField;
    location    "150";
    object      phi;
}
// * * * * * * * * * * * * * * * * * * * * * * * * * * * * * * * * * * * * * //

dimensions      [0 3 -1 0 0 0 0];

oriented        oriented;

internalField   nonuniform List<scalar> 
299000
(
0.0796644
0.0203356
0.0586795
0.020985
0.0442553
0.0144241
0.0348029
0.00945239
0.0285014
0.00630153
0.0241916
0.00430982
0.0211403
0.00305122
0.0188913
0.00224901
0.0171679
0.00172343
0.0158022
0.00136564
0.01469
0.00111228
0.0137637
0.00092625
0.0129784
0.000785283
0.0123029
0.000675538
0.0117147
0.000588135
0.0111975
0.000517192
0.0107389
0.00045868
0.0103291
0.00040976
0.00996071
0.000368378
0.00962769
0.000333013
0.00932516
0.000302519
0.00904915
0.000276013
0.00879633
0.000252809
0.00856396
0.000232364
0.00834971
0.000214245
0.00815161
0.000198101
0.00796796
0.000183646
0.00779731
0.000170644
0.0076384
0.000158902
0.00749014
0.000148256
0.00735157
0.000138569
0.00722184
0.000129724
0.00710021
0.000121623
0.00698602
0.000114182
0.00687869
0.000107327
0.00677769
0.000100995
0.00668256
9.51321e-05
0.00659286
8.96901e-05
0.00650823
8.46272e-05
0.00642832
7.99065e-05
0.00635282
7.54956e-05
0.00628145
7.13655e-05
0.00621395
6.74906e-05
0.0061501
6.38481e-05
0.00608968
6.04175e-05
0.00603249
5.71802e-05
0.00597837
5.41199e-05
0.00592714
5.12214e-05
0.00587867
4.84711e-05
0.00583281
4.58566e-05
0.00578944
4.33667e-05
0.00574844
4.09909e-05
0.00570972
3.87197e-05
0.00567317
3.65444e-05
0.00563871
3.44568e-05
0.00560625
3.24492e-05
0.00557573
3.05147e-05
0.00554708
2.86465e-05
0.00552024
2.68385e-05
0.00549515
2.50845e-05
0.00547177
2.3379e-05
0.00545004
2.17164e-05
0.00542995
2.00916e-05
0.00541144
1.84992e-05
0.0053945
1.69343e-05
0.00537911
1.53916e-05
0.00536523
1.38662e-05
0.00535287
1.23528e-05
0.00534202
1.08462e-05
0.00533267
9.34069e-06
0.00532484
7.83075e-06
0.00531852
6.30984e-06
0.00531374
4.77166e-06
0.00531052
3.2085e-06
0.0053089
1.61274e-06
0.00530892
-2.51374e-08
0.00531062
-1.71491e-06
0.00531408
-3.46902e-06
0.00531938
-5.30065e-06
0.00532659
-7.22675e-06
0.00533585
-9.26609e-06
0.00534728
-1.1443e-05
0.00536105
-1.37857e-05
0.00537737
-1.63312e-05
0.00539648
-1.91249e-05
0.0054187
-2.22284e-05
0.0054444
-2.57226e-05
0.00547411
-2.97244e-05
0.0055085
-3.44048e-05
0.00554853
-4.00374e-05
0.00559559
-4.70808e-05
0.00565194
-5.6361e-05
0.00572136
-6.94369e-05
0.00581073
-8.9391e-05
0.00593328
-0.000122572
0.00611567
-0.000182403
0.00641235
-0.000296703
0.00693626
-0.000523923
0.00796983
-0.0010336
-0.00244977
0.0104195
0.105208
0.0151276
0.100189
0.0260043
0.090194
0.0244187
0.0797525
0.0198939
0.0705711
0.0154828
0.0629906
0.0118904
0.0568494
0.0091924
0.0518703
0.00722807
0.0477951
0.00579854
0.0444164
0.00474442
0.0415761
0.00395252
0.039157
0.00334534
0.0370719
0.00287034
0.0352557
0.00249176
0.0336589
0.00218491
0.0322436
0.00193248
0.0309802
0.00172209
0.0298452
0.00154468
0.02882
0.00139356
0.0278894
0.00126365
0.0270408
0.00115106
0.0262641
0.00105277
0.0255505
0.000966384
0.0248928
0.000890009
0.0242849
0.000822112
0.0237216
0.000761447
0.0231982
0.000706992
0.0227109
0.000657902
0.0222564
0.000613471
0.0218315
0.000573109
0.0214337
0.000536316
0.0210608
0.000502668
0.0207106
0.000471803
0.0203813
0.00044341
0.0200714
0.000417219
0.0197794
0.000392998
0.019504
0.000370544
0.019244
0.00034968
0.0189984
0.00033025
0.0187661
0.000312116
0.0185465
0.000295157
0.0183386
0.000279265
0.0181417
0.000264345
0.0179552
0.000250309
0.0177785
0.000237081
0.0176111
0.000224592
0.0174524
0.000212779
0.0173021
0.000201586
0.0171596
0.000190961
0.0170246
0.000180858
0.0168967
0.000171233
0.0167756
0.000162047
0.0166611
0.000153264
0.0165527
0.000144852
0.0164504
0.000136778
0.0163538
0.000129015
0.0162628
0.000121535
0.0161771
0.000114313
0.0160966
0.000107325
0.0160211
0.000100549
0.0159505
9.39639e-05
0.0158847
8.7548e-05
0.0158235
8.12815e-05
0.0157668
7.51451e-05
0.0157146
6.91194e-05
0.0156668
6.31854e-05
0.0156233
5.7324e-05
0.0155842
5.1516e-05
0.0155493
4.57413e-05
0.0155186
3.99795e-05
0.0154922
3.4209e-05
0.0154701
2.8407e-05
0.0154523
2.25486e-05
0.0154389
1.66072e-05
0.0154299
1.0553e-05
0.0154255
4.35307e-06
0.0154258
-2.03047e-06
0.0154309
-8.6404e-06
0.0154411
-1.55274e-05
0.0154566
-2.27504e-05
0.0154777
-3.03807e-05
0.0155047
-3.85036e-05
0.0155382
-4.72256e-05
0.0155785
-5.66787e-05
0.0156263
-6.70333e-05
0.0156826
-7.85109e-05
0.0157482
-9.14126e-05
0.0158246
-0.000106157
0.0159135
-0.000123355
0.0160174
-0.000143935
0.0161396
-0.000169374
0.0162854
-0.000202133
0.0164624
-0.000246466
0.0166829
-0.000309965
0.0169667
-0.000406499
0.0173459
-0.000561562
0.0178705
-0.000821344
0.018617
-0.00127045
0.0196563
-0.002073
-0.00347659
0.020683
0.105143
0.00998509
0.108941
0.0222061
0.107709
0.0256506
0.103026
0.0245764
0.09679
0.0217192
0.0902354
0.018445
0.0840117
0.0154161
0.078381
0.0128587
0.0733986
0.0107809
0.0690272
0.0091159
0.065196
0.00778371
0.0618292
0.00671212
0.058857
0.00584253
0.0562192
0.00512956
0.0538653
0.00453879
0.0517535
0.00404421
0.0498495
0.00362611
0.0481247
0.00326947
0.0465555
0.00296271
0.0451223
0.00269686
0.0438085
0.00246485
0.0426002
0.00226107
0.0414855
0.00208104
0.0404544
0.00192113
0.0394981
0.00177838
0.0386092
0.00165037
0.0377811
0.00153509
0.0370081
0.00143085
0.0362853
0.00133625
0.0356083
0.00125011
0.0349732
0.0011714
0.0343766
0.00109927
0.0338154
0.00103298
0.0332869
0.000971898
0.0327886
0.000915459
0.0323184
0.000863187
0.0318743
0.000814661
0.0314545
0.000769512
0.0310573
0.000727415
0.0306813
0.000688083
0.0303252
0.000651262
0.0299877
0.000616724
0.0296678
0.000584268
0.0293644
0.000553711
0.0290766
0.000524892
0.0288035
0.000497663
0.0285444
0.000471892
0.0282985
0.000447459
0.0280652
0.000424253
0.0278438
0.000402177
0.0276339
0.000381137
0.0274349
0.000361051
0.0272463
0.000341841
0.0270677
0.000323436
0.0268987
0.00030577
0.0267389
0.000288781
0.0265881
0.000272412
0.0264457
0.000256609
0.0263117
0.00024132
0.0261858
0.000226497
0.0260676
0.000212095
0.0259571
0.000198068
0.025854
0.000184374
0.0257582
0.000170972
0.0256694
0.000157819
0.0255877
0.000144876
0.0255129
0.000132102
0.025445
0.000119455
0.0253838
0.000106894
0.0253294
9.43756e-05
0.0252817
8.18537e-05
0.0252408
6.92804e-05
0.0252068
5.66041e-05
0.0251796
4.37685e-05
0.0251594
3.07121e-05
0.0251464
1.73658e-05
0.0251407
3.65189e-06
0.0251425
-1.05187e-05
0.0251522
-2.52495e-05
0.0251701
-4.06624e-05
0.0251966
-5.69025e-05
0.0252322
-7.41457e-05
0.0252775
-9.26076e-05
0.0253334
-0.000112558
0.0254007
-0.000134341
0.0254805
-0.000158403
0.0255744
-0.000185345
0.0256842
-0.000215988
0.0258123
-0.000251502
0.0259619
-0.000293604
0.0261374
-0.000344906
0.0263447
-0.000409499
0.0265922
-0.000493971
0.0268913
-0.000609119
0.0272575
-0.000772779
0.0277101
-0.00101416
0.0282684
-0.00137964
0.028937
-0.00193917
0.0296501
-0.00278606
-0.00398057
0.030154
0.103312
0.00667287
0.108502
0.0170165
0.111576
0.0225768
0.111774
0.0243776
0.10966
0.023833
0.10607
0.0220353
0.101739
0.0197476
0.0971767
0.0174206
0.0926884
0.0152692
0.0884324
0.0133719
0.084478
0.0117381
0.0808436
0.0103465
0.0775207
0.00916535
0.0744886
0.00816169
0.0717215
0.00730586
0.0691932
0.0065725
0.0668787
0.0059406
0.0647552
0.00539296
0.0628023
0.00491561
0.0610019
0.00449721
0.0593383
0.00412849
0.0577974
0.00380193
0.0563671
0.0035113
0.0550367
0.00325148
0.0537969
0.00301824
0.0526392
0.00280801
0.0515565
0.00261781
0.0505422
0.00244514
0.0495906
0.00228785
0.0486965
0.00214414
0.0478555
0.00201244
0.0470633
0.00189141
0.0463164
0.00177989
0.0456114
0.00167689
0.0449454
0.00158151
0.0443155
0.001493
0.0437195
0.00141067
0.0431551
0.00133395
0.0426202
0.0012623
0.042113
0.00119525
0.0416318
0.0011324
0.0411752
0.00107337
0.0407416
0.00101783
0.0403298
0.000965485
0.0399386
0.000916065
0.039567
0.000869328
0.0392138
0.000825055
0.0388782
0.000783046
0.0385593
0.00074312
0.0382564
0.000705109
0.0379686
0.000668863
0.0376954
0.000634242
0.0374362
0.000601115
0.0371902
0.000569363
0.0369571
0.000538877
0.0367363
0.000509551
0.0365274
0.00048129
0.03633
0.000454003
0.0361437
0.000427603
0.0359682
0.000402009
0.0358031
0.000377143
0.0356483
0.000352932
0.0355033
0.000329301
0.0353681
0.000306182
0.0352424
0.000283505
0.0351261
0.000261202
0.0350189
0.000239205
0.0349209
0.000217445
0.034832
0.000195851
0.034752
0.000174353
0.0346809
0.000152873
0.0346188
0.000131332
0.0345658
0.000109645
0.0345218
8.77193e-05
0.0344871
6.54539e-05
0.0344617
4.27362e-05
0.0344458
1.94394e-05
0.0344399
-4.58076e-06
0.0344441
-2.94915e-05
0.0344589
-5.54884e-05
0.0344848
-8.28041e-05
0.0345223
-0.000111718
0.0345722
-0.000142573
0.0346354
-0.000175792
0.034713
-0.000211912
0.0348062
-0.000251624
0.0349166
-0.000295838
0.0350464
-0.000345781
0.035198
-0.000403148
0.0353747
-0.000470342
0.0355806
-0.000550857
0.0358209
-0.000649876
0.0361021
-0.000775215
0.0364317
-0.000938735
0.0368172
-0.00115835
0.0372634
-0.00146043
0.0377655
-0.00188172
0.0382942
-0.00246789
0.0387693
-0.00326118
-0.0042563
0.039045
0.102078
0.00459528
0.106348
0.012746
0.110419
0.0185055
0.113048
0.021749
0.113915
0.0229658
0.113201
0.0227492
0.111299
0.0216495
0.108622
0.0200983
0.105506
0.0183845
0.102199
0.0166796
0.0988619
0.0150748
0.0955977
0.0136107
0.0924646
0.0122984
0.0894927
0.0111336
0.0866943
0.0101042
0.0840708
0.00919601
0.0816173
0.00839412
0.0793254
0.00768482
0.0771852
0.00705577
0.0751862
0.00649618
0.073318
0.00599674
0.0715704
0.00554947
0.0699342
0.00514755
0.0684004
0.00478519
0.0669612
0.00445742
0.0656092
0.00416001
0.0643377
0.00388932
0.0631406
0.00364224
0.0620123
0.00341609
0.0609479
0.00320853
0.0599428
0.00301756
0.0589928
0.00284141
0.0580941
0.00267857
0.0572433
0.00252768
0.0564372
0.00238758
0.055673
0.00225722
0.054948
0.00213567
0.0542598
0.00202214
0.0536062
0.0019159
0.0529851
0.00181629
0.0523948
0.00172274
0.0518334
0.00163473
0.0512994
0.0015518
0.0507914
0.00147353
0.0503079
0.00139953
0.0498478
0.00132946
0.0494098
0.001263
0.048993
0.00119988
0.0485962
0.00113982
0.0482187
0.0010826
0.0478596
0.00102798
0.0475181
0.000975776
0.0471934
0.00092579
0.0468849
0.00087785
0.046592
0.000831795
0.046314
0.000787474
0.0460506
0.000744745
0.0458011
0.000703476
0.0455651
0.000663541
0.0453423
0.00062482
0.0451322
0.000587198
0.0449346
0.000550568
0.044749
0.000514821
0.0445754
0.000479856
0.0444133
0.000445571
0.0442626
0.000411865
0.0441231
0.00037864
0.0439948
0.000345794
0.0438774
0.000313225
0.0437709
0.000280827
0.0436753
0.000248491
0.0435905
0.000216102
0.0435166
0.000183536
0.0434536
0.00015066
0.0434017
0.00011733
0.043361
8.33838e-05
0.0433318
4.86429e-05
0.0433143
1.29027e-05
0.0433089
-2.40712e-05
0.0433159
-6.25523e-05
0.0433359
-0.000102863
0.0433696
-0.00014539
0.0434176
-0.0001906
0.0434808
-0.000239069
0.0435604
-0.000291514
0.0436576
-0.000348848
0.0437739
-0.000412251
0.0439114
-0.000483278
0.0440722
-0.000564015
0.0442592
-0.000657317
0.0444754
-0.000767153
0.0447246
-0.000899117
0.0450105
-0.00106114
0.0453361
-0.00126441
0.0457023
-0.00152452
0.046104
-0.00186219
0.0465251
-0.00230287
0.0469298
-0.00287256
0.0472544
-0.00358588
-0.00441958
0.0474177
0.101292
0.00330299
0.104405
0.00963295
0.108105
0.0148057
0.111407
0.0184472
0.113755
0.0206181
0.11495
0.0215535
0.115047
0.0215531
0.11423
0.0209152
0.112725
0.0198896
0.110742
0.018662
0.108457
0.0173598
0.106004
0.0160641
0.103479
0.0148227
0.100952
0.0136607
0.0984681
0.0125885
0.096056
0.0116081
0.0937337
0.0107164
0.091511
0.00990749
0.0893922
0.00917459
0.0873778
0.00851051
0.0854663
0.0079083
0.0836542
0.00736147
0.0819377
0.00686408
0.0803121
0.00641081
0.0787726
0.00599688
0.0773145
0.0056181
0.0759331
0.00527073
0.0746238
0.00495148
0.0733825
0.00465745
0.0722049
0.00438609
0.0710873
0.00413513
0.0700261
0.00390258
0.069018
0.00368667
0.0680599
0.00348583
0.0671488
0.00329867
0.066282
0.00312394
0.0654571
0.00296054
0.0646718
0.00280746
0.0639239
0.00266383
0.0632113
0.00252884
0.0625323
0.00240178
0.061885
0.00228198
0.0612679
0.00216887
0.0606795
0.00206191
0.0601184
0.00196062
0.0595833
0.00186455
0.059073
0.0017733
0.0585864
0.00168651
0.0581224
0.00160382
0.05768
0.00152494
0.0572584
0.00144958
0.0568567
0.00137746
0.0564741
0.00130834
0.05611
0.001242
0.0557635
0.00117822
0.0554342
0.00111679
0.0551214
0.00105754
0.0548246
0.00100029
0.0545433
0.000944856
0.054277
0.000891093
0.0540253
0.000838845
0.0537879
0.000787965
0.0535644
0.00073831
0.0533545
0.000689743
0.0531579
0.000642128
0.0529744
0.00059533
0.0528039
0.000549216
0.052646
0.000503651
0.0525007
0.000458498
0.0523679
0.000413618
0.0522475
0.000368863
0.0521395
0.000324081
0.0520439
0.000279109
0.0519608
0.000233772
0.0518902
0.00018788
0.0518323
0.000141223
0.0517874
9.35686e-05
0.0517556
4.46524e-05
0.0517373
-5.82612e-06
0.051733
-5.8215e-05
0.051743
-0.000112922
0.051768
-0.000170431
0.0518087
-0.000231321
0.0518659
-0.000296299
0.0519406
-0.000366233
0.0520339
-0.000442208
0.0521472
-0.000525601
0.0522821
-0.00061818
0.0524403
-0.00072225
0.0526238
-0.000840851
0.0528347
-0.000978036
0.0530747
-0.00113923
0.0533453
-0.0013317
0.0536458
-0.00156503
0.0539728
-0.00185152
0.0543166
-0.00220605
0.0546584
-0.00264467
0.0549662
-0.00318041
0.0551951
-0.0038148
-0.00452358
0.0552991
0.100819
0.00248438
0.103016
0.00743561
0.105988
0.0118337
0.109101
0.0153343
0.111868
0.0178505
0.113988
0.0194337
0.115331
0.0202106
0.115899
0.0203469
0.115777
0.0200118
0.115084
0.0193548
0.113947
0.0184965
0.112483
0.0175281
0.110791
0.0165148
0.108951
0.0155006
0.107026
0.0145141
0.105062
0.0135722
0.103094
0.0126842
0.101147
0.011854
0.0992397
0.0110822
0.097383
0.0103672
0.0955852
0.00970617
0.0938508
0.0090958
0.0921825
0.00853237
0.0905811
0.00801217
0.0890464
0.0075316
0.0875773
0.00708725
0.086172
0.00667595
0.0848287
0.00629477
0.0835451
0.00594104
0.0823189
0.00561233
0.0811475
0.00530644
0.0800288
0.00502135
0.0789601
0.00475528
0.0779394
0.00450658
0.0769643
0.00427379
0.0760326
0.00405557
0.0751424
0.00385072
0.0742917
0.00365815
0.0734787
0.00347686
0.0727016
0.00330597
0.0719587
0.00314465
0.0712485
0.00299216
0.0705695
0.00284783
0.0699204
0.00271103
0.0692998
0.0025812
0.0687065
0.00245781
0.0681394
0.0023404
0.0675974
0.00222852
0.0670795
0.00212177
0.0665846
0.00201977
0.066112
0.00192218
0.0656608
0.00182867
0.0652302
0.00173895
0.0648194
0.00165272
0.0644279
0.00156974
0.0640549
0.00148976
0.0636999
0.00141254
0.0633623
0.00133786
0.0630416
0.00126552
0.0627374
0.00119531
0.0624492
0.00112705
0.0621766
0.00106056
0.0619192
0.000995649
0.0616768
0.00093215
0.061449
0.000869893
0.0612356
0.00080871
0.0610364
0.000748432
0.0608512
0.000688891
0.0606797
0.000629915
0.060522
0.000571329
0.0603779
0.00051295
0.0602474
0.000454589
0.0601304
0.000396043
0.0600271
0.000337095
0.0599374
0.000277514
0.0598616
0.00021704
0.0597997
0.000155391
0.0597521
9.22483e-05
0.059719
2.72494e-05
0.0597008
-4.00197e-05
0.0596979
-0.000110041
0.0597108
-0.000183379
0.0597402
-0.000260705
0.0597866
-0.000342825
0.0598511
-0.000430715
0.0599344
-0.000525573
0.0600377
-0.000628887
0.060162
-0.000742518
0.0603085
-0.000868824
0.0604784
-0.0010108
0.0606727
-0.00117229
0.0608916
-0.00135817
0.0611345
-0.00157464
0.0613987
-0.00182934
0.0616785
-0.00213134
0.0619631
-0.00249061
0.0622348
-0.0029164
0.0624684
-0.0034141
0.0626334
-0.00397975
-0.00459297
0.0627027
0.100541
0.00194347
0.102093
0.00588329
0.10437
0.00955667
0.106999
0.0127058
0.109633
0.0152162
0.112002
0.017065
0.113925
0.0182875
0.115313
0.0189589
0.116149
0.0191756
0.116466
0.0190373
0.116327
0.0186363
0.115803
0.0180517
0.11497
0.0173478
0.113896
0.0165741
0.112643
0.0157677
0.11126
0.0149552
0.109789
0.0141549
0.108264
0.013379
0.106711
0.0126351
0.105151
0.0119277
0.103598
0.0112587
0.102065
0.0106285
0.100561
0.0100366
0.0990917
0.00948159
0.0976615
0.00896177
0.0962736
0.0084752
0.0949297
0.00801983
0.0936309
0.00759359
0.0923774
0.00719447
0.0911692
0.00682053
0.0900057
0.00646993
0.0888861
0.00614096
0.0878094
0.005832
0.0867744
0.00554155
0.0857799
0.00526823
0.0848247
0.00501076
0.0839075
0.00476797
0.0830268
0.00453876
0.0821815
0.00432215
0.0813703
0.00411721
0.0805918
0.00392309
0.079845
0.00373901
0.0791285
0.00356426
0.0784414
0.00339817
0.0777824
0.00324014
0.0771507
0.00308958
0.0765451
0.00294599
0.0759647
0.00280887
0.0754087
0.00267777
0.0748762
0.00255228
0.0743663
0.00243199
0.0738785
0.00231655
0.0734118
0.00220561
0.0729656
0.00209886
0.0725394
0.00199598
0.0721324
0.0018967
0.0717442
0.00180074
0.0713742
0.00170785
0.0710219
0.00161778
0.0706869
0.00153031
0.0703688
0.0014452
0.0700671
0.00136224
0.0697815
0.00128122
0.0695117
0.00120193
0.0692574
0.00112417
0.0690184
0.00104775
0.0687943
0.00097245
0.0685851
0.000898083
0.0683906
0.000824441
0.0682106
0.000751315
0.068045
0.000678489
0.0678939
0.000605737
0.0677571
0.000532821
0.0676347
0.000459487
0.0675267
0.00038546
0.0674333
0.000310441
0.0673545
0.000234101
0.0672907
0.000156073
0.067242
7.5944e-05
0.0672087
-6.75595e-06
0.0671912
-9.25667e-05
0.0671899
-0.000182116
0.0672053
-0.000276138
0.0672379
-0.000375505
0.0672884
-0.000481254
0.0673575
-0.000594637
0.0674457
-0.000717169
0.0675539
-0.000850705
0.0676825
-0.000997516
0.0678321
-0.0011604
0.0680026
-0.00134278
0.0681932
-0.00154882
0.068402
-0.00178353
0.0686254
-0.00205268
0.0688566
-0.0023626
0.0690855
-0.00271952
0.0692973
-0.00312824
0.0694731
-0.00358989
0.069592
-0.00409873
-0.00463879
0.0696378
0.100374
0.00156906
0.101489
0.00476819
0.103211
0.00783483
0.105328
0.0105887
0.107616
0.0129285
0.109871
0.0148102
0.11193
0.0162288
0.113678
0.0172101
0.115053
0.0178012
0.11603
0.01806
0.116619
0.0180477
0.116848
0.0178227
0.116758
0.0174375
0.116395
0.016937
0.115805
0.0163582
0.11503
0.0157303
0.114108
0.015076
0.113075
0.0144125
0.111957
0.0137524
0.11078
0.0131047
0.109564
0.0124755
0.108323
0.0118689
0.107073
0.0112873
0.105822
0.0107322
0.10458
0.0102039
0.103353
0.00970233
0.102146
0.00922684
0.100963
0.0087766
0.0998065
0.00835057
0.0986794
0.00794761
0.0975828
0.00756651
0.0965177
0.00720605
0.0954847
0.00686505
0.0944839
0.00654232
0.0935154
0.00623673
0.0925789
0.00594722
0.0916741
0.00567276
0.0908005
0.00541238
0.0899575
0.00516517
0.0891444
0.00493027
0.0883606
0.0047069
0.0876053
0.00449429
0.0868778
0.00429175
0.0861773
0.00409862
0.0855032
0.00391428
0.0848546
0.00373817
0.0842308
0.00356974
0.0836312
0.00340851
0.083055
0.00325398
0.0825015
0.00310573
0.0819701
0.00296333
0.0814603
0.0028264
0.0809713
0.00269457
0.0805027
0.00256749
0.0800538
0.00244483
0.0796242
0.00232628
0.0792134
0.00221154
0.0788209
0.00210033
0.0784463
0.00199237
0.0780892
0.00188741
0.0777492
0.0017852
0.0774259
0.00168548
0.0771191
0.00158802
0.0768285
0.00149259
0.0765537
0.00139896
0.0762945
0.00130689
0.0760508
0.00121617
0.0758223
0.00112656
0.0756089
0.00103782
0.0754104
0.000949729
0.0752269
0.000862028
0.0750581
0.000774463
0.0749042
0.000686764
0.074765
0.000598642
0.0746407
0.000509789
0.0745312
0.00041987
0.0744368
0.000328518
0.0743575
0.000235326
0.0742936
0.000139841
0.0742452
4.1551e-05
0.0742128
-6.01247e-05
0.0741965
-0.000165854
0.0741967
-0.000276411
0.0742139
-0.000392696
0.0742484
-0.000515766
0.0743006
-0.00064687
0.0743709
-0.00078749
0.0744595
-0.000939386
0.0745666
-0.00110466
0.074692
-0.00128579
0.0748349
-0.00148573
0.0749939
-0.00170787
0.0751664
-0.00195607
0.0753482
-0.00223452
0.075533
-0.00254738
0.0757117
-0.00289827
0.0758726
-0.00328918
0.0760018
-0.00371907
0.0760851
-0.00418204
-0.00466581
0.0761121
0.10027
0.00129876
0.101091
0.00394792
0.102398
0.00652723
0.104074
0.00891273
0.105978
0.0110246
0.107969
0.0128188
0.109922
0.0142765
0.111732
0.0154002
0.113324
0.016209
0.114651
0.0167331
0.115689
0.0170089
0.116437
0.0170749
0.116905
0.0169693
0.117115
0.0167271
0.117093
0.01638
0.116869
0.0159548
0.116471
0.0154741
0.115927
0.0149565
0.115263
0.0144167
0.114501
0.0138662
0.113662
0.0133141
0.112764
0.012767
0.111822
0.01223
0.110847
0.0117066
0.109852
0.0111992
0.108845
0.0107096
0.107833
0.0102385
0.106823
0.00978659
0.10582
0.0093538
0.104827
0.00893997
0.103849
0.0085447
0.102888
0.00816743
0.101945
0.00780753
0.101023
0.00746429
0.100123
0.00713698
0.0992454
0.00682484
0.0983911
0.00652713
0.0975603
0.00624309
0.0967535
0.00597199
0.0959706
0.00571314
0.0952117
0.00546584
0.0944765
0.00522945
0.0937649
0.00500335
0.0930765
0.00478694
0.0924112
0.00457966
0.0917684
0.00438096
0.0911478
0.00419034
0.0905489
0.00400732
0.0899715
0.00383143
0.089415
0.00366223
0.0888789
0.00349933
0.088363
0.00334231
0.0878668
0.00319082
0.0873898
0.00304448
0.0869316
0.00290297
0.0864919
0.00276595
0.0860704
0.00263311
0.0856665
0.00250416
0.0852801
0.00237881
0.0849107
0.00225678
0.0845581
0.00213779
0.084222
0.00202159
0.0839021
0.00190791
0.0835982
0.0017965
0.08331
0.00168711
0.0830374
0.00157949
0.0827801
0.00147339
0.0825381
0.00136856
0.0823112
0.00126473
0.0820993
0.00116165
0.0819022
0.00105905
0.08172
0.000956643
0.0815527
0.00085413
0.0814001
0.000751197
0.0812623
0.000647508
0.0811395
0.0005427
0.0810316
0.000436376
0.0809388
0.000328101
0.0808612
0.000217394
0.0807991
0.000103715
0.0807524
-1.3541e-05
0.0807216
-0.000135062
0.0807068
-0.000261633
0.0807083
-0.000394155
0.0807261
-0.000533668
0.0807606
-0.000681376
0.0808118
-0.000838674
0.0808795
-0.00100718
0.0809636
-0.00118876
0.0810633
-0.00138556
0.0811776
-0.0016
0.0813044
-0.00183477
0.0814411
-0.00209274
0.0815833
-0.00237679
0.0817254
-0.00268952
0.0818599
-0.00303276
0.0819775
-0.00340685
0.0820682
-0.00380973
0.0821221
-0.00423598
-0.00467615
0.0821324
0.100202
0.00109639
0.100821
0.00332885
0.101827
0.00552131
0.103152
0.00758775
0.104709
0.00946784
0.106404
0.0111236
0.108147
0.0125341
0.109854
0.0136925
0.111459
0.0146039
0.11291
0.0152824
0.114171
0.0157481
0.115221
0.0160244
0.116054
0.0161368
0.11667
0.0161105
0.117081
0.0159694
0.1173
0.0157356
0.117345
0.0154289
0.117236
0.0150663
0.11699
0.0146623
0.116627
0.0142293
0.116164
0.0137771
0.115617
0.013314
0.115
0.0128464
0.114327
0.0123795
0.113609
0.0119173
0.112856
0.0114627
0.112077
0.0110181
0.111278
0.0105851
0.110467
0.0101648
0.109649
0.00975798
0.108829
0.00936502
0.10801
0.00898612
0.107196
0.00862125
0.10639
0.00827027
0.105594
0.0079329
0.10481
0.00760878
0.10404
0.00729752
0.103284
0.00699866
0.102545
0.00671172
0.101822
0.00643622
0.101116
0.00617166
0.100428
0.00591753
0.0997577
0.00567336
0.0991059
0.00543866
0.0984726
0.00521295
0.0978578
0.00499577
0.0972615
0.00478668
0.0966835
0.00458525
0.0961239
0.00439105
0.0955824
0.00420369
0.095059
0.00402279
0.0945533
0.00384797
0.0940652
0.00367886
0.0935946
0.00351514
0.0931411
0.00335645
0.0927045
0.00320249
0.0922847
0.00305294
0.0918813
0.0029075
0.0914943
0.00276587
0.0911233
0.00262777
0.0907681
0.00249293
0.0904286
0.00236106
0.0901046
0.0022319
0.0897959
0.00210519
0.0895023
0.00198065
0.0892238
0.00185803
0.0889601
0.00173706
0.0887112
0.00161746
0.0884769
0.00149897
0.0882573
0.0013813
0.0880521
0.00126417
0.0878615
0.00114727
0.0876853
0.00103029
0.0875236
0.000912885
0.0873764
0.000794708
0.0872437
0.000675372
0.0871256
0.000554462
0.0870222
0.000431524
0.0869335
0.000306061
0.0868596
0.00017752
0.0868008
4.52881e-05
0.086757
-9.13236e-05
0.0867285
-0.00023309
0.0867152
-0.000380888
0.0867172
-0.000535711
0.0867345
-0.000698685
0.0867668
-0.000871087
0.086814
-0.00105436
0.0868753
-0.00125012
0.0869499
-0.00146016
0.0870363
-0.00168642
0.0871324
-0.00193095
0.0872355
-0.00219581
0.0873416
-0.0024829
0.0874457
-0.00279368
0.0875418
-0.00312884
0.0876227
-0.00348778
0.087681
-0.00386808
0.0877099
-0.00426496
-0.00467111
0.0877049
0.100156
0.00094015
0.100635
0.0028499
0.101422
0.00473443
0.102477
0.00653278
0.103745
0.00819958
0.105165
0.00970398
0.106672
0.0110266
0.108207
0.0121579
0.109714
0.0130969
0.111147
0.0138492
0.11247
0.0144251
0.113656
0.0148385
0.114687
0.0151053
0.115555
0.0152425
0.116258
0.0152672
0.116797
0.0151961
0.117181
0.0150448
0.11742
0.0148277
0.117525
0.0145575
0.117508
0.0142457
0.117383
0.0139019
0.117163
0.0135344
0.116859
0.0131504
0.116483
0.0127558
0.116045
0.0123552
0.115555
0.0119528
0.115021
0.0115516
0.114452
0.0111542
0.113854
0.0107626
0.113234
0.0103784
0.112596
0.0100026
0.111946
0.00963606
0.111288
0.00927945
0.110625
0.00893311
0.109961
0.00859725
0.109298
0.00827194
0.108638
0.00795715
0.107984
0.00765277
0.107337
0.00735861
0.106699
0.00707443
0.106071
0.00679996
0.105453
0.00653491
0.104848
0.00627894
0.104254
0.00603172
0.103675
0.00579292
0.103108
0.00556217
0.102556
0.00533913
0.102017
0.00512346
0.101494
0.00491479
0.100985
0.0047128
0.10049
0.00451715
0.100011
0.00432751
0.0995459
0.00414356
0.099096
0.00396498
0.098661
0.00379147
0.0982408
0.00362272
0.0978353
0.00345843
0.0974444
0.00329832
0.0970682
0.00314211
0.0967065
0.00298951
0.0963591
0.00284024
0.0960261
0.00269405
0.0957074
0.00255064
0.0954028
0.00240977
0.0951123
0.00227115
0.0948358
0.00213451
0.0945732
0.00199959
0.0943246
0.0018661
0.0940898
0.00173376
0.0938688
0.00160228
0.0936616
0.00147137
0.0934681
0.0013407
0.0932885
0.00120994
0.0931226
0.00107876
0.0929705
0.000946774
0.0928322
0.000813599
0.0927079
0.000678806
0.0925974
0.000541935
0.092501
0.000402483
0.0924186
0.000259899
0.0923503
0.000113574
0.0922961
-3.71626e-05
0.0922561
-0.00019306
0.0922301
-0.000354949
0.0922181
-0.000523757
0.0922199
-0.000700512
0.0922351
-0.000886356
0.0922633
-0.00108254
0.0923036
-0.00129044
0.0923549
-0.0015115
0.0924157
-0.00174725
0.0924839
-0.0019992
0.0925569
-0.00226876
0.0926311
-0.0025571
0.0927023
-0.00286491
0.0927656
-0.00319217
0.0928155
-0.00353778
0.0928467
-0.00389929
0.0928543
-0.00427259
-0.00465192
0.0928351
0.100124
0.000816392
0.100503
0.00247087
0.101129
0.0041079
0.101979
0.00568315
0.103016
0.00716218
0.1042
0.00852026
0.105486
0.00974065
0.10683
0.0108138
0.108191
0.0117362
0.109531
0.0125093
0.110818
0.0131382
0.112025
0.0136309
0.113133
0.0139972
0.114128
0.0142482
0.114999
0.0143957
0.115744
0.0144517
0.116361
0.0144278
0.116853
0.0143354
0.117226
0.0141848
0.117486
0.0139857
0.117641
0.0137467
0.1177
0.0134756
0.117671
0.0131791
0.117564
0.0128631
0.117386
0.0125328
0.117146
0.0121923
0.116853
0.0118455
0.116512
0.0114952
0.11613
0.0111442
0.115714
0.0107944
0.115269
0.0104475
0.1148
0.010105
0.114312
0.00976791
0.113808
0.00943706
0.113292
0.00911312
0.112767
0.00879653
0.112237
0.00848764
0.111703
0.00818665
0.111168
0.00789366
0.110633
0.00760872
0.110102
0.00733178
0.109574
0.00706277
0.109051
0.00680153
0.108535
0.00654791
0.108026
0.00630172
0.107526
0.00606273
0.107034
0.00583072
0.106552
0.00560544
0.10608
0.00538664
0.105619
0.00517405
0.105169
0.00496742
0.10473
0.00476646
0.104302
0.00457093
0.103887
0.00438054
0.103483
0.00419503
0.103092
0.00401413
0.102713
0.00383758
0.102346
0.00366511
0.101991
0.00349646
0.101649
0.00333137
0.10132
0.00316957
0.101003
0.0030108
0.100699
0.00285481
0.100408
0.00270132
0.100129
0.00255007
0.0998624
0.0024008
0.0996087
0.00225324
0.0993677
0.00210709
0.0991394
0.00196209
0.0989237
0.00181793
0.0987208
0.0016743
0.0985306
0.00153091
0.0983531
0.0013874
0.0981884
0.00124343
0.0980365
0.00109863
0.0978975
0.000952595
0.0977714
0.000804908
0.0976582
0.000655109
0.097558
0.0005027
0.0974707
0.000347143
0.0973964
0.000187848
0.097335
2.41727e-05
0.0972865
-0.00014459
0.0972508
-0.000319214
0.0972275
-0.000500543
0.0972165
-0.000689501
0.0972172
-0.000887085
0.097229
-0.00109436
0.097251
-0.00131246
0.097282
-0.00154255
0.0973205
-0.00178576
0.0973645
-0.0020432
0.0974115
-0.00231577
0.0974584
-0.00260411
0.0975019
-0.00290841
0.0975379
-0.00322819
0.0975623
-0.00356217
0.097571
-0.00390801
0.0975606
-0.0042622
-0.00462016
0.0975288
0.1001
0.000716247
0.100406
0.0021648
0.100914
0.00360038
0.101607
0.00498984
0.102463
0.00630664
0.103452
0.00753089
0.104544
0.00864843
0.105707
0.00965043
0.106911
0.0105327
0.108126
0.0112947
0.109325
0.0119388
0.110486
0.0124695
0.11159
0.0128931
0.112622
0.0132168
0.113569
0.0134486
0.114423
0.013597
0.115181
0.0136704
0.115839
0.0136773
0.116398
0.0136258
0.11686
0.0135237
0.117228
0.0133782
0.117508
0.0131958
0.117704
0.0129827
0.117823
0.0127442
0.117871
0.0124852
0.117853
0.0122099
0.117777
0.0119221
0.117647
0.011625
0.11747
0.0113214
0.11725
0.0110137
0.116994
0.0107039
0.116705
0.0103937
0.116388
0.0100846
0.116048
0.00977774
0.115687
0.00947412
0.115309
0.00917451
0.114917
0.00887956
0.114514
0.00858976
0.114102
0.00830547
0.113684
0.00802698
0.113261
0.00775449
0.112836
0.00748809
0.112409
0.00722786
0.111983
0.0069738
0.111559
0.00672587
0.111138
0.00648399
0.110721
0.00624806
0.110308
0.00601795
0.109901
0.00579351
0.109501
0.00557457
0.109107
0.00536095
0.108721
0.00515246
0.108343
0.00494889
0.107974
0.00475004
0.107613
0.00455569
0.107262
0.00436562
0.106919
0.0041796
0.106587
0.00399741
0.106265
0.00381881
0.105953
0.00364357
0.105651
0.00347144
0.105359
0.0033022
0.105079
0.00313559
0.104808
0.00297137
0.104549
0.00280928
0.104301
0.00264907
0.104064
0.00249047
0.103838
0.00233321
0.103623
0.00217701
0.103419
0.00202159
0.103227
0.00186663
0.103046
0.00171183
0.102876
0.00155686
0.102718
0.00140137
0.102572
0.00124499
0.102437
0.00108734
0.102314
0.000927991
0.102203
0.000766501
0.102103
0.00060239
0.102015
0.00043514
0.101938
0.000264192
0.101874
8.8941e-05
0.10182
-9.12675e-05
0.101778
-0.00027714
0.101747
-0.000469433
0.101727
-0.000668959
0.101716
-0.000876573
0.101715