/*--------------------------------*- C++ -*----------------------------------*\
| =========                 |                                                 |
| \\      /  F ield         | OpenFOAM: The Open Source CFD Toolbox           |
|  \\    /   O peration     | Version:  2406                                  |
|   \\  /    A nd           | Website:  www.openfoam.com                      |
|    \\/     M anipulation  |                                                 |
\*---------------------------------------------------------------------------*/
FoamFile
{
    version     2.0;
    format      ascii;
    arch        "LSB;label=32;scalar=64";
    class       volVectorField;
    location    "150";
    object      U;
}
// * * * * * * * * * * * * * * * * * * * * * * * * * * * * * * * * * * * * * //

dimensions      [0 1 -1 0 0 0 0];

internalField   nonuniform List<vector> 
150000
(
(7.94097 0.953541 0)
(6.69752 1.02915 0)
(5.17755 0.57842 0)
(3.90228 0.294362 0)
(3.11162 0.166092 0)
(2.6036 0.0998676 0)
(2.24758 0.0624252 0)
(1.98852 0.0414076 0)
(1.7938 0.0293061 0)
(1.64198 0.021901 0)
(1.51981 0.0170849 0)
(1.41904 0.0137832 0)
(1.33427 0.0114116 0)
(1.26181 0.00963877 0)
(1.19905 0.00826972 0)
(1.14411 0.00718471 0)
(1.09556 0.00630667 0)
(1.05234 0.0055839 0)
(1.01358 0.00498044 0)
(0.97864 0.00447051 0)
(0.946965 0.00403511 0)
(0.918123 0.00365998 0)
(0.891752 0.00333417 0)
(0.867553 0.00304916 0)
(0.845273 0.00279823 0)
(0.824698 0.00257599 0)
(0.805648 0.00237812 0)
(0.787965 0.00220108 0)
(0.771515 0.00204196 0)
(0.756181 0.00189833 0)
(0.741861 0.0017682 0)
(0.728465 0.00164986 0)
(0.715914 0.00154188 0)
(0.704138 0.00144304 0)
(0.693075 0.00135229 0)
(0.682671 0.00126873 0)
(0.672875 0.00119158 0)
(0.663643 0.00112017 0)
(0.654935 0.00105391 0)
(0.646716 0.000992278 0)
(0.638953 0.000934824 0)
(0.631616 0.000881141 0)
(0.624678 0.000830878 0)
(0.618116 0.000783714 0)
(0.611908 0.00073937 0)
(0.606032 0.000697588 0)
(0.60047 0.000658146 0)
(0.595207 0.000620831 0)
(0.590225 0.000585464 0)
(0.585511 0.000551871 0)
(0.581053 0.000519901 0)
(0.576837 0.00048941 0)
(0.572854 0.000460272 0)
(0.569092 0.000432364 0)
(0.565544 0.000405579 0)
(0.5622 0.000379809 0)
(0.559053 0.000354964 0)
(0.556096 0.000330946 0)
(0.553323 0.000307678 0)
(0.550727 0.000285071 0)
(0.548305 0.000263054 0)
(0.54605 0.000241543 0)
(0.54396 0.000220474 0)
(0.542031 0.000199767 0)
(0.540259 0.000179359 0)
(0.538643 0.000159168 0)
(0.53718 0.000139134 0)
(0.535869 0.00011917 0)
(0.534708 9.92122e-05 0)
(0.533698 7.91673e-05 0)
(0.532839 5.89637e-05 0)
(0.532131 3.84946e-05 0)
(0.531575 1.76762e-05 0)
(0.531175 -3.61824e-06 0)
(0.530932 -2.54926e-05 0)
(0.530851 -4.81046e-05 0)
(0.530936 -7.15922e-05 0)
(0.531192 -9.61617e-05 0)
(0.531628 -0.000122003 0)
(0.532251 -0.000149394 0)
(0.533071 -0.000178608 0)
(0.534102 -0.000210038 0)
(0.535358 -0.000244096 0)
(0.536858 -0.000281363 0)
(0.538623 -0.000322494 0)
(0.540681 -0.000368425 0)
(0.543066 -0.000420323 0)
(0.545823 -0.000479974 0)
(0.549009 -0.000550048 0)
(0.552703 -0.000635279 0)
(0.557016 -0.000744488 0)
(0.56212 -0.000895795 0)
(0.568295 -0.00112782 0)
(0.576034 -0.00152783 0)
(0.586257 -0.00230489 0)
(0.600695 -0.00395792 0)
(0.622701 -0.00762675 0)
(0.660483 -0.0167481 0)
(0.737646 -0.0491332 0)
(0.858846 -0.182866 0)
(10.2186 1.8871 0)
(10.3827 2.72489 0)
(9.62179 2.241 0)
(8.49577 1.62025 0)
(7.47703 1.14047 0)
(6.64262 0.807919 0)
(5.96362 0.586368 0)
(5.41296 0.439511 0)
(4.96506 0.340371 0)
(4.59638 0.271464 0)
(4.2885 0.221996 0)
(4.02782 0.185348 0)
(3.80434 0.157412 0)
(3.61058 0.135578 0)
(3.44094 0.118145 0)
(3.29113 0.10397 0)
(3.15781 0.0922635 0)
(3.03839 0.0824667 0)
(2.93079 0.0741729 0)
(2.83333 0.0670805 0)
(2.74464 0.0609612 0)
(2.6636 0.0556396 0)
(2.58927 0.0509787 0)
(2.52087 0.0468703 0)
(2.45773 0.0432277 0)
(2.39929 0.0399811 0)
(2.34506 0.0370731 0)
(2.29461 0.0344568 0)
(2.2476 0.0320931 0)
(2.20369 0.0299495 0)
(2.16262 0.0279983 0)
(2.12414 0.0262165 0)
(2.08803 0.0245842 0)
(2.0541 0.0230844 0)
(2.02218 0.0217025 0)
(1.99212 0.0204258 0)
(1.96378 0.0192435 0)
(1.93703 0.0181458 0)
(1.91177 0.0171244 0)
(1.8879 0.0161719 0)
(1.86533 0.0152818 0)
(1.84397 0.0144482 0)
(1.82375 0.0136661 0)
(1.8046 0.0129307 0)
(1.78645 0.0122381 0)
(1.76926 0.0115844 0)
(1.75297 0.0109664 0)
(1.73753 0.010381 0)
(1.72289 0.00982556 0)
(1.70903 0.00929748 0)
(1.69589 0.00879452 0)
(1.68345 0.0083146 0)
(1.67168 0.0078558 0)
(1.66054 0.00741635 0)
(1.65001 0.00699461 0)
(1.64007 0.00658905 0)
(1.6307 0.00619826 0)
(1.62187 0.00582088 0)
(1.61356 0.00545565 0)
(1.60577 0.00510139 0)
(1.59846 0.00475693 0)
(1.59165 0.00442119 0)
(1.5853 0.00409309 0)
(1.5794 0.00377159 0)
(1.57396 0.00345568 0)
(1.56896 0.00314432 0)
(1.5644 0.00283649 0)
(1.56027 0.00253116 0)
(1.55657 0.00222726 0)
(1.55329 0.00192367 0)
(1.55043 0.00161924 0)
(1.54801 0.00131271 0)
(1.54601 0.00100276 0)
(1.54445 0.000687905 0)
(1.54333 0.00036654 0)
(1.54266 3.68424e-05 0)
(1.54245 -0.000303246 0)
(1.54272 -0.00065611 0)
(1.54348 -0.00102452 0)
(1.54476 -0.00141175 0)
(1.54658 -0.00182172 0)
(1.54897 -0.00225919 0)
(1.55198 -0.00273002 0)
(1.55566 -0.00324155 0)
(1.56005 -0.00380319 0)
(1.56523 -0.00442732 0)
(1.5713 -0.00513073 0)
(1.57836 -0.00593717 0)
(1.58658 -0.00688185 0)
(1.59615 -0.00801999 0)
(1.60736 -0.00944317 0)
(1.62061 -0.0113119 0)
(1.63652 -0.0139204 0)
(1.65604 -0.0178295 0)
(1.68069 -0.0241396 0)
(1.7129 -0.0350401 0)
(1.75662 -0.0548444 0)
(1.81883 -0.0920883 0)
(1.90948 -0.164885 0)
(2.01268 -0.309817 0)
(10.1768 1.34548 0)
(10.7882 2.53784 0)
(10.9414 2.66448 0)
(10.5998 2.3672 0)
(10.0105 1.96094 0)
(9.34952 1.57563 0)
(8.7013 1.25782 0)
(8.10498 1.01126 0)
(7.57405 0.823759 0)
(7.10763 0.681155 0)
(6.69921 0.571654 0)
(6.341 0.486382 0)
(6.02557 0.418929 0)
(5.74637 0.364733 0)
(5.49787 0.320543 0)
(5.27549 0.284027 0)
(5.07545 0.253483 0)
(4.89463 0.227656 0)
(4.73045 0.205605 0)
(4.58077 0.186612 0)
(4.44379 0.170125 0)
(4.31799 0.15571 0)
(4.20211 0.143027 0)
(4.09505 0.131801 0)
(3.99588 0.121812 0)
(3.90379 0.112878 0)
(3.81808 0.104853 0)
(3.73816 0.0976139 0)
(3.66349 0.0910573 0)
(3.5936 0.0850976 0)
(3.52808 0.079662 0)
(3.46658 0.0746885 0)
(3.40876 0.0701243 0)
(3.35434 0.0659237 0)
(3.30306 0.0620475 0)
(3.25468 0.0584615 0)
(3.20901 0.055136 0)
(3.16586 0.0520449 0)
(3.12505 0.0491654 0)
(3.08642 0.0464773 0)
(3.04985 0.0439627 0)
(3.0152 0.0416058 0)
(2.98235 0.0393924 0)
(2.95121 0.0373099 0)
(2.92167 0.0353469 0)
(2.89365 0.0334932 0)
(2.86705 0.0317396 0)
(2.84182 0.0300778 0)
(2.81788 0.0285001 0)
(2.79516 0.0269996 0)
(2.77361 0.0255701 0)
(2.75318 0.0242058 0)
(2.73381 0.0229013 0)
(2.71546 0.0216516 0)
(2.69809 0.0204523 0)
(2.68166 0.0192991 0)
(2.66613 0.018188 0)
(2.65148 0.0171153 0)
(2.63767 0.0160774 0)
(2.62468 0.0150711 0)
(2.61248 0.0140932 0)
(2.60105 0.0131405 0)
(2.59037 0.0122102 0)
(2.58043 0.0112994 0)
(2.5712 0.0104052 0)
(2.56269 0.00952477 0)
(2.55486 0.00865537 0)
(2.54773 0.00779414 0)
(2.54127 0.00693813 0)
(2.53549 0.00608434 0)
(2.53039 0.00522959 0)
(2.52596 0.00437052 0)
(2.52221 0.00350351 0)
(2.51915 0.00262462 0)
(2.51677 0.00172952 0)
(2.51511 0.000813343 0)
(2.51417 -0.000129404 0)
(2.51397 -0.00110503 0)
(2.51454 -0.00212089 0)
(2.51591 -0.00318564 0)
(2.51812 -0.00430967 0)
(2.52121 -0.00550551 0)
(2.52524 -0.00678866 0)
(2.53028 -0.00817849 0)
(2.53641 -0.00969987 0)
(2.54373 -0.0113853 0)
(2.55238 -0.0132786 0)
(2.56251 -0.0154409 0)
(2.57434 -0.0179601 0)
(2.58814 -0.0209687 0)
(2.60428 -0.0246735 0)
(2.62325 -0.0294104 0)
(2.64576 -0.0357419 0)
(2.67277 -0.0446338 0)
(2.70561 -0.0577677 0)
(2.74603 -0.0780674 0)
(2.79612 -0.110499 0)
(2.8578 -0.163206 0)
(2.92998 -0.248753 0)
(2.99532 -0.380121 0)
(10.0798 0.823345 0)
(10.5966 1.94635 0)
(11.0632 2.45304 0)
(11.2349 2.53024 0)
(11.1196 2.36835 0)
(10.8132 2.10304 0)
(10.402 1.81842 0)
(9.94758 1.55573 0)
(9.48949 1.32912 0)
(9.04955 1.13967 0)
(8.63799 0.983326 0)
(8.25843 0.854669 0)
(7.91091 0.748466 0)
(7.59372 0.660255 0)
(7.30437 0.586428 0)
(7.04022 0.524134 0)
(6.79865 0.471142 0)
(6.57727 0.425708 0)
(6.37391 0.386466 0)
(6.18666 0.352335 0)
(6.01382 0.32246 0)
(5.85391 0.296153 0)
(5.70563 0.272861 0)
(5.56785 0.252131 0)
(5.43955 0.233595 0)
(5.31987 0.216947 0)
(5.20802 0.201933 0)
(5.10331 0.188342 0)
(5.00515 0.175994 0)
(4.91299 0.164737 0)
(4.82634 0.154444 0)
(4.74478 0.145003 0)
(4.66791 0.13632 0)
(4.59539 0.128312 0)
(4.52691 0.120909 0)
(4.46218 0.114049 0)
(4.40094 0.107676 0)
(4.34297 0.101744 0)
(4.28805 0.0962105 0)
(4.23599 0.0910381 0)
(4.18661 0.0861937 0)
(4.13976 0.081648 0)
(4.09528 0.0773748 0)
(4.05305 0.0733504 0)
(4.01293 0.0695537 0)
(3.97481 0.0659655 0)
(3.93859 0.0625685 0)
(3.90417 0.0593471 0)
(3.87147 0.0562869 0)
(3.8404 0.0533751 0)
(3.81088 0.0505995 0)
(3.78285 0.0479494 0)
(3.75624 0.0454145 0)
(3.73099 0.0429857 0)
(3.70705 0.0406541 0)
(3.68437 0.0384118 0)
(3.6629 0.0362513 0)
(3.64259 0.0341654 0)
(3.62341 0.0321474 0)
(3.60533 0.0301911 0)
(3.58831 0.0282904 0)
(3.57232 0.0264395 0)
(3.55733 0.0246327 0)
(3.54333 0.0228646 0)
(3.53029 0.0211299 0)
(3.51819 0.0194232 0)
(3.50702 0.0177392 0)
(3.49677 0.0160725 0)
(3.48742 0.0144177 0)
(3.47897 0.0127691 0)
(3.47142 0.0111208 0)
(3.46477 0.00946649 0)
(3.45901 0.00779947 0)
(3.45415 0.00611246 0)
(3.45021 0.00439745 0)
(3.4472 0.00264551 0)
(3.44513 0.000846588 0)
(3.44404 -0.00101083 0)
(3.44394 -0.00294009 0)
(3.44488 -0.0049569 0)
(3.4469 -0.00707996 0)
(3.45006 -0.00933185 0)
(3.45441 -0.0117403 0)
(3.46005 -0.0143398 0)
(3.46705 -0.0171744 0)
(3.47555 -0.0203011 0)
(3.48569 -0.0237958 0)
(3.49765 -0.0277621 0)
(3.51165 -0.0323455 0)
(3.52797 -0.0377565 0)
(3.54699 -0.044309 0)
(3.56916 -0.0524822 0)
(3.59507 -0.0630241 0)
(3.62541 -0.0771138 0)
(3.66097 -0.0966112 0)
(3.70248 -0.124395 0)
(3.75013 -0.164717 0)
(3.80271 -0.223313 0)
(3.85555 -0.306447 0)
(3.89605 -0.415713 0)
(10.0426 0.546254 0)
(10.3951 1.45849 0)
(10.8536 2.05132 0)
(11.2148 2.33712 0)
(11.3918 2.39261 0)
(11.3907 2.29989 0)
(11.2493 2.12829 0)
(11.011 1.92654 0)
(10.7141 1.72351 0)
(10.388 1.53389 0)
(10.0525 1.3637 0)
(9.72049 1.21419 0)
(9.39955 1.08425 0)
(9.09378 0.971786 0)
(8.80509 0.874487 0)
(8.53403 0.790139 0)
(8.28034 0.716773 0)
(8.04329 0.652697 0)
(7.82193 0.596486 0)
(7.61523 0.546948 0)
(7.42211 0.503093 0)
(7.24156 0.464096 0)
(7.07259 0.429273 0)
(6.9143 0.398048 0)
(6.76584 0.369943 0)
(6.62645 0.344552 0)
(6.49543 0.321533 0)
(6.37214 0.300595 0)
(6.256 0.281492 0)
(6.14649 0.264011 0)
(6.04312 0.247969 0)
(5.94546 0.233208 0)
(5.85311 0.219592 0)
(5.76572 0.207001 0)
(5.68295 0.195332 0)
(5.6045 0.184493 0)
(5.5301 0.174404 0)
(5.4595 0.164994 0)
(5.39246 0.156199 0)
(5.32878 0.147965 0)
(5.26825 0.140241 0)
(5.21071 0.132983 0)
(5.15598 0.12615 0)
(5.10391 0.119707 0)
(5.05437 0.113621 0)
(5.00722 0.107864 0)
(4.96234 0.102408 0)
(4.91962 0.0972285 0)
(4.87897 0.0923046 0)
(4.84028 0.0876156 0)
(4.80347 0.0831431 0)
(4.76846 0.0788699 0)
(4.73516 0.0747804 0)
(4.70352 0.0708599 0)
(4.67346 0.067095 0)
(4.64493 0.0634731 0)
(4.61787 0.0599822 0)
(4.59224 0.0566113 0)
(4.56798 0.05335 0)
(4.54505 0.0501882 0)
(4.52341 0.0471164 0)
(4.50303 0.0441255 0)
(4.48388 0.0412068 0)
(4.46593 0.0383515 0)
(4.44915 0.0355513 0)
(4.43351 0.0327978 0)
(4.41901 0.0300828 0)
(4.40562 0.0273977 0)
(4.39334 0.0247342 0)
(4.38214 0.0220833 0)
(4.37204 0.0194358 0)
(4.36302 0.0167822 0)
(4.35508 0.014112 0)
(4.34823 0.011414 0)
(4.34249 0.008676 0)
(4.33786 0.0058844 0)
(4.33435 0.00302393 0)
(4.33201 7.71903e-05 0)
(4.33085 -0.00297585 0)
(4.33092 -0.00615867 0)
(4.33226 -0.00949905 0)
(4.33493 -0.0130304 0)
(4.33899 -0.0167933 0)
(4.34453 -0.0208382 0)
(4.35164 -0.0252283 0)
(4.36044 -0.0300446 0)
(4.37108 -0.0353933 0)
(4.38372 -0.0414157 0)
(4.39857 -0.048305 0)
(4.41589 -0.0563302 0)
(4.43596 -0.0658745 0)
(4.45914 -0.0774919 0)
(4.4858 -0.0919921 0)
(4.51631 -0.110559 0)
(4.5509 -0.134902 0)
(4.58948 -0.167404 0)
(4.63114 -0.21115 0)
(4.67352 -0.269565 0)
(4.71182 -0.345094 0)
(4.73787 -0.435789 0)
(10.0236 0.385381 0)
(10.2537 1.09622 0)
(10.6178 1.64904 0)
(10.992 2.01068 0)
(11.2856 2.19843 0)
(11.464 2.24802 0)
(11.5252 2.20021 0)
(11.4839 2.09226 0)
(11.3623 1.95289 0)
(11.1831 1.80176 0)
(10.9658 1.65113 0)
(10.726 1.50789 0)
(10.4751 1.37542 0)
(10.2211 1.25491 0)
(9.96962 1.14635 0)
(9.72422 1.04905 0)
(9.48716 0.96203 0)
(9.25973 0.884241 0)
(9.0426 0.814638 0)
(8.83595 0.752254 0)
(8.63971 0.696218 0)
(8.45362 0.645759 0)
(8.27729 0.600199 0)
(8.1103 0.55895 0)
(7.95216 0.521502 0)
(7.8024 0.487411 0)
(7.66054 0.456293 0)
(7.52611 0.427816 0)
(7.39868 0.401689 0)
(7.27783 0.37766 0)
(7.16317 0.355508 0)
(7.05431 0.335041 0)
(6.95093 0.31609 0)
(6.85269 0.298504 0)
(6.75929 0.282153 0)
(6.67047 0.26692 0)
(6.58595 0.252702 0)
(6.50549 0.239407 0)
(6.42888 0.226953 0)
(6.3559 0.215266 0)
(6.28637 0.204282 0)
(6.22009 0.193939 0)
(6.15691 0.184187 0)
(6.09668 0.174975 0)
(6.03923 0.166261 0)
(5.98445 0.158005 0)
(5.93221 0.150171 0)
(5.88239 0.142726 0)
(5.83488 0.135639 0)
(5.78959 0.128884 0)
(5.74641 0.122434 0)
(5.70527 0.116266 0)
(5.66607 0.110359 0)
(5.62876 0.104692 0)
(5.59324 0.0992459 0)
(5.55947 0.0940039 0)
(5.52738 0.0889494 0)
(5.49691 0.0840667 0)
(5.46801 0.0793412 0)
(5.44064 0.074759 0)
(5.41475 0.0703067 0)
(5.39031 0.0659716 0)
(5.36727 0.0617412 0)
(5.34561 0.0576035 0)
(5.32529 0.0535467 0)
(5.30629 0.0495592 0)
(5.2886 0.0456292 0)
(5.27218 0.041745 0)
(5.25702 0.0378947 0)
(5.24312 0.034066 0)
(5.23046 0.0302462 0)
(5.21904 0.0264219 0)
(5.20886 0.0225787 0)
(5.19992 0.0187013 0)
(5.19223 0.014773 0)
(5.18581 0.0107751 0)
(5.18066 0.00668708 0)
(5.17682 0.00248541 0)
(5.17431 -0.00185674 0)
(5.17317 -0.0063706 0)
(5.17344 -0.0110929 0)
(5.17517 -0.0160674 0)
(5.17844 -0.021347 0)
(5.18331 -0.0269962 0)
(5.18988 -0.0330955 0)
(5.19825 -0.039746 0)
(5.20854 -0.0470776 0)
(5.22091 -0.0552592 0)
(5.23552 -0.0645147 0)
(5.25255 -0.0751446 0)
(5.27222 -0.0875585 0)
(5.29472 -0.102318 0)
(5.32022 -0.120197 0)
(5.3488 -0.142247 0)
(5.3803 -0.16987 0)
(5.41414 -0.204833 0)
(5.44898 -0.24915 0)
(5.48236 -0.304631 0)
(5.5104 -0.371851 0)
(5.52796 -0.448262 0)
(10.0134 0.283835 0)
(10.1646 0.836843 0)
(10.4345 1.31387 0)
(10.7556 1.67804 0)
(11.0612 1.92367 0)
(11.311 2.06109 0)
(11.4856 2.1091 0)
(11.58 2.08987 0)
(11.5997 2.02445 0)
(11.5558 1.93031 0)
(11.4612 1.82067 0)
(11.3285 1.70488 0)
(11.1684 1.58913 0)
(10.9901 1.47725 0)
(10.8004 1.37139 0)
(10.6049 1.27262 0)
(10.4076 1.18128 0)
(10.2113 1.09728 0)
(10.0182 1.02029 0)
(9.82979 0.949855 0)
(9.6469 0.885442 0)
(9.4702 0.826529 0)
(9.30002 0.772607 0)
(9.13653 0.723196 0)
(8.97974 0.677857 0)
(8.82958 0.636189 0)
(8.6859 0.597831 0)
(8.54853 0.562457 0)
(8.41724 0.529777 0)
(8.29181 0.499533 0)
(8.17199 0.471493 0)
(8.05754 0.44545 0)
(7.94823 0.42122 0)
(7.84382 0.398638 0)
(7.74408 0.377556 0)
(7.64879 0.357843 0)
(7.55775 0.339381 0)
(7.47075 0.322061 0)
(7.38761 0.30579 0)
(7.30814 0.290479 0)
(7.23218 0.276051 0)
(7.15956 0.262435 0)
(7.09014 0.249566 0)
(7.02377 0.237386 0)
(6.96032 0.225842 0)
(6.89965 0.214884 0)
(6.84166 0.204469 0)
(6.78623 0.194556 0)
(6.73326 0.185106 0)
(6.68264 0.176086 0)
(6.63429 0.167463 0)
(6.58812 0.159207 0)
(6.54404 0.151292 0)
(6.50199 0.143691 0)
(6.4619 0.13638 0)
(6.42369 0.129338 0)
(6.3873 0.122542 0)
(6.35268 0.115974 0)
(6.31978 0.109614 0)
(6.28855 0.103444 0)
(6.25894 0.0974464 0)
(6.2309 0.0916056 0)
(6.20441 0.0859053 0)
(6.17943 0.0803296 0)
(6.15593 0.0748634 0)
(6.13388 0.0694915 0)
(6.11325 0.0641988 0)
(6.09403 0.0589701 0)
(6.0762 0.0537899 0)
(6.05975 0.0486424 0)
(6.04466 0.0435112 0)
(6.03092 0.0383791 0)
(6.01855 0.0332279 0)
(6.00753 0.0280378 0)
(5.99788 0.0227877 0)
(5.9896 0.0174541 0)
(5.98271 0.0120111 0)
(5.97723 0.00642942 0)
(5.97319 0.000675767 0)
(5.97061 -0.00528824 0)
(5.96955 -0.0115074 0)
(5.97003 -0.0180345 0)
(5.97213 -0.0249329 0)
(5.9759 -0.0322787 0)
(5.98143 -0.0401655 0)
(5.98879 -0.0487088 0)
(5.9981 -0.0580538 0)
(6.00944 -0.0683847 0)
(6.02296 -0.0799383 0)
(6.03875 -0.0930211 0)
(6.05694 -0.108033 0)
(6.07759 -0.125496 0)
(6.1007 -0.146088 0)
(6.12615 -0.170673 0)
(6.15352 -0.200311 0)
(6.18205 -0.236217 0)
(6.21036 -0.279596 0)
(6.23632 -0.331272 0)
(6.25703 -0.391007 0)
(6.26927 -0.456534 0)
(10.0083 0.217943 0)
(10.1103 0.654442 0)
(10.3067 1.05447 0)
(10.5625 1.38868 0)
(10.8346 1.64555 0)
(11.0907 1.82453 0)
(11.3087 1.93195 0)
(11.4756 1.97865 0)
(11.5866 1.97729 0)
(11.6431 1.94025 0)
(11.6502 1.8784 0)
(11.6152 1.80064 0)
(11.5455 1.7138 0)
(11.4486 1.6229 0)
(11.3308 1.53148 0)
(11.1978 1.44189 0)
(11.0542 1.35563 0)
(10.9037 1.27359 0)
(10.7492 1.1962 0)
(10.5931 1.12362 0)
(10.4371 1.05583 0)
(10.2826 0.992659 0)
(10.1305 0.933888 0)
(9.98173 0.879252 0)
(9.83666 0.828472 0)
(9.69569 0.781265 0)
(9.55906 0.73736 0)
(9.42691 0.696495 0)
(9.29929 0.658426 0)
(9.17622 0.622926 0)
(9.05765 0.589785 0)
(8.94351 0.558809 0)
(8.83372 0.529823 0)
(8.72817 0.502665 0)
(8.62672 0.477187 0)
(8.52927 0.453255 0)
(8.43568 0.430747 0)
(8.34582 0.409552 0)
(8.25956 0.389566 0)
(8.17676 0.370698 0)
(8.09731 0.352862 0)
(8.02107 0.335981 0)
(7.94793 0.319983 0)
(7.87778 0.304803 0)
(7.8105 0.290381 0)
(7.74599 0.276662 0)
(7.68414 0.263595 0)
(7.62487 0.251133 0)
(7.56807 0.239232 0)
(7.51367 0.227853 0)
(7.46157 0.216958 0)
(7.4117 0.206512 0)
(7.36399 0.196482 0)
(7.31837 0.186839 0)
(7.27476 0.177554 0)
(7.23312 0.168599 0)
(7.19337 0.159951 0)
(7.15547 0.151584 0)
(7.11937 0.143476 0)
(7.08502 0.135605 0)
(7.05237 0.127951 0)
(7.02139 0.120492 0)
(6.99203 0.113211 0)
(6.96427 0.106087 0)
(6.93807 0.0991018 0)
(6.91341 0.0922371 0)
(6.89026 0.0854743 0)
(6.86861 0.0787949 0)
(6.84842 0.07218 0)
(6.8297 0.0656103 0)
(6.81242 0.0590658 0)
(6.79659 0.0525257 0)
(6.78219 0.0459677 0)
(6.76923 0.0393684 0)
(6.75771 0.0327022 0)
(6.74763 0.0259412 0)
(6.73902 0.0190545 0)
(6.73189 0.0120077 0)
(6.72625 0.00476177 0)
(6.72214 -0.00272782 0)
(6.71959 -0.0105125 0)
(6.71864 -0.0186524 0)
(6.71934 -0.0272186 0)
(6.72172 -0.0362956 0)
(6.72587 -0.0459852 0)
(6.73183 -0.0564114 0)
(6.73967 -0.067726 0)
(6.74948 -0.080117 0)
(6.7613 -0.0938186 0)
(6.7752 -0.109123 0)
(6.79121 -0.126397 0)
(6.80929 -0.146096 0)
(6.82932 -0.168779 0)
(6.85104 -0.195113 0)
(6.87395 -0.225853 0)
(6.89724 -0.261782 0)
(6.91968 -0.303558 0)
(6.93956 -0.351443 0)
(6.95481 -0.404899 0)
(6.96337 -0.462118 0)
(10.0055 0.173455 0)
(10.0768 0.524825 0)
(10.2205 0.858247 0)
(10.4187 1.15278 0)
(10.6451 1.39735 0)
(10.877 1.58784 0)
(11.0963 1.7248 0)
(11.289 1.81244 0)
(11.4463 1.85726 0)
(11.5641 1.86679 0)
(11.6419 1.84858 0)
(11.6819 1.80955 0)
(11.6877 1.75568 0)
(11.6639 1.69191 0)
(11.6152 1.62209 0)
(11.5459 1.54919 0)
(11.4601 1.4754 0)
(11.3616 1.40228 0)
(11.2534 1.3309 0)
(11.1382 1.26198 0)
(11.018 1.19597 0)
(10.8948 1.1331 0)
(10.7699 1.07348 0)
(10.6446 1.01711 0)
(10.5198 0.963918 0)
(10.3962 0.913804 0)
(10.2744 0.866629 0)
(10.1548 0.822241 0)
(10.0378 0.780482 0)
(9.92356 0.741191 0)
(9.81234 0.70421 0)
(9.70424 0.669388 0)
(9.59932 0.63658 0)
(9.49763 0.605646 0)
(9.39916 0.576458 0)
(9.30392 0.548895 0)
(9.21187 0.522843 0)
(9.12296 0.498196 0)
(9.03714 0.474858 0)
(8.95435 0.452736 0)
(8.87453 0.431748 0)
(8.79759 0.411813 0)
(8.72347 0.392861 0)
(8.65209 0.374823 0)
(8.58338 0.357637 0)
(8.51726 0.341245 0)
(8.45366 0.325593 0)
(8.39251 0.310631 0)
(8.33373 0.296312 0)
(8.27726 0.282592 0)
(8.22304 0.26943 0)
(8.17099 0.256788 0)
(8.12107 0.24463 0)
(8.0732 0.232922 0)
(8.02734 0.221632 0)
(7.98343 0.210729 0)
(7.94142 0.200186 0)
(7.90127 0.189975 0)
(7.86292 0.18007 0)
(7.82635 0.170446 0)
(7.7915 0.161079 0)
(7.75834 0.151945 0)
(7.72685 0.143023 0)
(7.69698 0.134289 0)
(7.66871 0.125723 0)
(7.64202 0.117302 0)
(7.61688 0.109006 0)
(7.59327 0.100812 0)
(7.57118 0.092698 0)
(7.55059 0.0846426 0)
(7.5315 0.076622 0)
(7.51388 0.0686118 0)
(7.49775 0.0605867 0)
(7.48309 0.0525192 0)
(7.46991 0.0443801 0)
(7.45822 0.0361376 0)
(7.44802 0.0277566 0)
(7.43933 0.0191981 0)
(7.43217 0.0104186 0)
(7.42655 0.00136877 0)
(7.4225 -0.00800803 0)
(7.42006 -0.017777 0)
(7.41924 -0.0280142 0)
(7.4201 -0.038809 0)
(7.42268 -0.0502671 0)
(7.427 -0.0625147 0)
(7.43312 -0.075703 0)
(7.44106 -0.0900143 0)
(7.45084 -0.105669 0)
(7.46247 -0.122933 0)
(7.47591 -0.142124 0)
(7.49105 -0.163623 0)
(7.5077 -0.187869 0)
(7.52553 -0.215352 0)
(7.54404 -0.246584 0)
(7.56246 -0.282033 0)
(7.57975 -0.322008 0)
(7.59462 -0.366476 0)
(7.60558 -0.414832 0)
(7.61131 -0.465681 0)
(10.004 0.141992 0)
(10.0556 0.430562 0)
(10.1624 0.709858 0)
(10.3152 0.965427 0)
(10.4982 1.18832 0)
(10.6965 1.37386 0)
(10.8967 1.52047 0)
(11.0871 1.62907 0)
(11.2588 1.7025 0)
(11.4057 1.74481 0)
(11.5243 1.76066 0)
(11.6135 1.75478 0)
(11.6739 1.73168 0)
(11.7072 1.69543 0)
(11.7159 1.64952 0)
(11.7028 1.59687 0)
(11.671 1.53983 0)
(11.6232 1.48028 0)
(11.5622 1.41965 0)
(11.4904 1.35902 0)
(11.4099 1.29919 0)
(11.3226 1.24073 0)
(11.2303 1.18405 0)
(11.1341 1.12939 0)
(11.0354 1.07692 0)
(10.935 1.02671 0)
(10.8339 0.978779 0)
(10.7327 0.933114 0)
(10.6319 0.889664 0)
(10.532 0.848358 0)
(10.4334 0.809114 0)
(10.3364 0.771842 0)
(10.2412 0.736447 0)
(10.1479 0.702832 0)
(10.0568 0.670901 0)
(9.96786 0.64056 0)
(9.88124 0.611717 0)
(9.79698 0.584285 0)
(9.7151 0.55818 0)
(9.63561 0.533322 0)
(9.55852 0.509634 0)
(9.48382 0.487046 0)
(9.41149 0.465489 0)
(9.3415 0.444899 0)
(9.27382 0.425217 0)
(9.20842 0.406386 0)
(9.14526 0.388353 0)
(9.0843 0.371066 0)
(9.02549 0.35448 0)
(8.96881 0.338549 0)
(8.91419 0.323231 0)
(8.8616 0.308487 0)
(8.81101 0.294279 0)
(8.76235 0.280571 0)
(8.7156 0.267329 0)
(8.67072 0.25452 0)
(8.62767 0.242116 0)
(8.58641 0.230084 0)
(8.5469 0.218398 0)
(8.50912 0.207031 0)
(8.47302 0.195954 0)
(8.4386 0.185144 0)
(8.4058 0.174575 0)
(8.37462 0.164223 0)
(8.34502 0.154062 0)
(8.31698 0.14407 0)
(8.2905 0.134222 0)
(8.26554 0.124493 0)
(8.24209 0.11486 0)
(8.22015 0.105297 0)
(8.1997 0.0957773 0)
(8.18074 0.0862745 0)
(8.16327 0.0767599 0)
(8.14727 0.0672032 0)
(8.13275 0.057572 0)
(8.11972 0.047831 0)
(8.10818 0.0379419 0)
(8.09814 0.0278624 0)
(8.08962 0.0175455 0)
(8.08263 0.00693813 0)
(8.07718 -0.00401932 0)
(8.07331 -0.0153951 0)
(8.07102 -0.0272678 0)
(8.07034 -0.0397281 0)
(8.0713 -0.0528817 0)
(8.07392 -0.066852 0)
(8.0782 -0.0817838 0)
(8.08415 -0.0978472 0)
(8.09175 -0.115241 0)
(8.10096 -0.134198 0)
(8.11169 -0.154985 0)
(8.1238 -0.177906 0)
(8.13705 -0.203293 0)
(8.15111 -0.231491 0)
(8.16548 -0.262828 0)
(8.17951 -0.297557 0)
(8.19236 -0.335775 0)
(8.20303 -0.377305 0)
(8.21049 -0.421573 0)
(8.21384 -0.467509 0)
(10.003 0.118824 0)
(10.0417 0.360224 0)
(10.1227 0.59647 0)
(10.2414 0.81758 0)
(10.3881 1.01672 0)
(10.5531 1.18975 0)
(10.7272 1.33453 0)
(10.9016 1.45061 0)
(11.0689 1.53893 0)
(11.2228 1.60147 0)
(11.3591 1.64083 0)
(11.475 1.65998 0)
(11.5692 1.662 0)
(11.6415 1.64988 0)
(11.6926 1.62641 0)
(11.7237 1.59405 0)
(11.7364 1.55499 0)
(11.7327 1.51104 0)
(11.7145 1.46372 0)
(11.6836 1.41427 0)
(11.6418 1.36368 0)
(11.591 1.31273 0)
(11.5324 1.26201 0)
(11.4677 1.21198 0)
(11.3978 1.16298 0)
(11.3241 1.11526 0)
(11.2472 1.06898 0)
(11.1681 1.02425 0)
(11.0875 0.981138 0)
(11.0059 0.939674 0)
(10.9239 0.899859 0)
(10.8419 0.861674 0)
(10.7602 0.825086 0)
(10.6791 0.790051 0)
(10.599 0.756518 0)
(10.5199 0.72443 0)
(10.4422 0.693727 0)
(10.3658 0.664348 0)
(10.2911 0.636232 0)
(10.2179 0.609318 0)
(10.1464 0.583545 0)
(10.0767 0.558855 0)
(10.0088 0.53519 0)
(9.94272 0.512496 0)
(9.87847 0.49072 0)
(9.81606 0.469811 0)
(9.7555 0.44972 0)
(9.69679 0.4304 0)
(9.63992 0.411808 0)
(9.58487 0.3939 0)
(9.53162 0.376635 0)
(9.48017 0.359976 0)
(9.43049 0.343885 0)
(9.38256 0.328325 0)
(9.33636 0.313264 0)
(9.29186 0.298668 0)
(9.24905 0.284506 0)
(9.20789 0.270747 0)
(9.16838 0.257362 0)
(9.13048 0.244323 0)
(9.09418 0.231602 0)
(9.05945 0.219171 0)
(9.02628 0.207004 0)
(8.99465 0.195074 0)
(8.96454 0.183357 0)
(8.93593 0.171825 0)
(8.90883 0.160453 0)
(8.8832 0.149215 0)
(8.85904 0.138083 0)
(8.83635 0.127031 0)
(8.81511 0.116031 0)
(8.79532 0.105052 0)
(8.77698 0.0940638 0)
(8.76009 0.0830341 0)
(8.74464 0.071928 0)
(8.73064 0.0607076 0)
(8.7181 0.0493324 0)
(8.70702 0.0377575 0)
(8.69741 0.0259337 0)
(8.68928 0.0138061 0)
(8.68265 0.00131342 0)
(8.67751 -0.0116137 0)
(8.67389 -0.0250536 0)
(8.6718 -0.0390958 0)
(8.67123 -0.0538425 0)
(8.6722 -0.0694108 0)
(8.67469 -0.0859349 0)
(8.67867 -0.103568 0)
(8.68411 -0.122486 0)
(8.69094 -0.142883 0)
(8.69902 -0.164978 0)
(8.70821 -0.189006 0)
(8.71824 -0.215208 0)
(8.7288 -0.243816 0)
(8.73945 -0.275025 0)
(8.74962 -0.308948 0)
(8.75865 -0.345559 0)
(8.7658 -0.384622 0)
(8.77032 -0.425625 0)
(8.77161 -0.467742 0)
(10.0023 0.101181 0)
(10.0321 0.30639 0)
(10.095 0.50846 0)
(10.1885 0.70038 0)
(10.3063 0.877014 0)
(10.4423 1.03495 0)
(10.5902 1.17214 0)
(10.7438 1.28765 0)
(10.8972 1.38158 0)
(11.0453 1.45474 0)
(11.1839 1.50853 0)
(11.31 1.54469 0)
(11.4212 1.56519 0)
(11.5163 1.57207 0)
(11.5948 1.56737 0)
(11.6567 1.553 0)
(11.7027 1.53075 0)
(11.7336 1.50221 0)
(11.7504 1.46876 0)
(11.7545 1.43161 0)
(11.7471 1.39177 0)
(11.7296 1.35011 0)
(11.703 1.30732 0)
(11.6688 1.26397 0)
(11.6278 1.22052 0)
(11.5812 1.17734 0)
(11.5298 1.1347 0)
(11.4745 1.09282 0)
(11.416 1.05187 0)
(11.3549 1.01196 0)
(11.2919 0.973184 0)
(11.2274 0.935586 0)
(11.1619 0.899199 0)
(11.0957 0.864035 0)
(11.0293 0.830091 0)
(10.9629 0.797355 0)
(10.8967 0.765803 0)
(10.8309 0.735407 0)
(10.7659 0.706133 0)
(10.7016 0.677945 0)
(10.6382 0.650804 0)
(10.5759 0.624669 0)
(10.5147 0.599498 0)
(10.4548 0.575249 0)
(10.3961 0.551882 0)
(10.3388 0.529355 0)
(10.2828 0.507627 0)
(10.2283 0.486658 0)
(10.1752 0.466411 0)
(10.1235 0.446847 0)
(10.0734 0.42793 0)
(10.0247 0.409623 0)
(9.97746 0.391894 0)
(9.93173 0.374707 0)
(9.88748 0.358031 0)
(9.84472 0.341834 0)
(9.80344 0.326086 0)
(9.76362 0.310755 0)
(9.72527 0.295814 0)
(9.68837 0.281234 0)
(9.65292 0.266986 0)
(9.61891 0.253044 0)
(9.58632 0.239379 0)
(9.55516 0.225965 0)
(9.5254 0.212775 0)
(9.49706 0.199782 0)
(9.4701 0.186959 0)
(9.44455 0.174278 0)
(9.42037 0.161712 0)
(9.39758 0.14923 0)
(9.37617 0.136805 0)
(9.35614 0.124404 0)
(9.33749 0.111995 0)
(9.32021 0.099545 0)
(9.30431 0.087016 0)
(9.28979 0.0743696 0)
(9.27666 0.0615633 0)
(9.26492 0.0485512 0)
(9.25457 0.0352831 0)
(9.24563 0.0217035 0)
(9.23809 0.00775093 0)
(9.23197 -0.00664303 0)
(9.22725 -0.0215548 0)
(9.22395 -0.0370703 0)
(9.22206 -0.0532859 0)
(9.22156 -0.0703097 0)
(9.22242 -0.0882629 0)
(9.2246 -0.10728 0)
(9.22805 -0.127511 0)
(9.23266 -0.149117 0)
(9.2383 -0.17227 0)
(9.24481 -0.197146 0)
(9.25194 -0.223914 0)
(9.25939 -0.252722 0)
(9.26677 -0.283671 0)
(9.27362 -0.316785 0)
(9.27943 -0.351972 0)
(9.28362 -0.388981 0)
(9.28567 -0.42737 0)
(9.28516 -0.466493 0)
(10.0018 0.0873659 0)
(10.0254 0.2642 0)
(10.0753 0.438935 0)
(10.1499 0.606523 0)
(10.2454 0.763084 0)
(10.3575 0.905883 0)
(10.4821 1.03311 0)
(10.6147 1.14379 0)
(10.751 1.23762 0)
(10.8869 1.3149 0)
(11.019 1.3763 0)
(11.1444 1.42283 0)
(11.2606 1.45571 0)
(11.366 1.47629 0)
(11.4595 1.48596 0)
(11.5403 1.48613 0)
(11.6084 1.47815 0)
(11.6638 1.46329 0)
(11.7069 1.44273 0)
(11.7383 1.41753 0)
(11.7589 1.38861 0)
(11.7693 1.35679 0)
(11.7706 1.32279 0)
(11.7636 1.28721 0)
(11.7491 1.25056 0)
(11.7281 1.21326 0)
(11.7012 1.17566 0)
(11.6693 1.13807 0)
(11.633 1.1007 0)
(11.593 1.06375 0)
(11.5498 1.02737 0)
(11.504 0.991663 0)
(11.456 0.956727 0)
(11.4063 0.922622 0)
(11.3552 0.889392 0)
(11.3031 0.857065 0)
(11.2503 0.825658 0)
(11.197 0.795176 0)
(11.1435 0.765615 0)
(11.09 0.736965 0)
(11.0367 0.709212 0)
(10.9837 0.682334 0)
(10.9311 0.656311 0)
(10.8791 0.631115 0)
(10.8279 0.606719 0)
(10.7774 0.583096 0)
(10.7277 0.560216 0)
(10.6791 0.538047 0)
(10.6313 0.516561 0)
(10.5847 0.495727 0)
(10.5391 0.475513 0)
(10.4946 0.455891 0)
(10.4513 0.436829 0)
(10.4092 0.418299 0)
(10.3682 0.400272 0)
(10.3284 0.382718 0)
(10.2899 0.365609 0)
(10.2526 0.348917 0)
(10.2165 0.332614 0)
(10.1817 0.316674 0)
(10.1482 0.301069 0)
(10.1159 0.285772 0)
(10.0848 0.270756 0)
(10.055 0.255994 0)
(10.0265 0.241459 0)
(9.99924 0.227125 0)
(9.97324 0.212963 0)
(9.94851 0.198947 0)
(9.92504 0.185046 0)
(9.90284 0.171232 0)
(9.88191 0.157474 0)
(9.86225 0.143741 0)
(9.84386 0.129998 0)
(9.82676 0.116212 0)
(9.81093 0.102345 0)
(9.79638 0.0883568 0)
(9.78312 0.0742051 0)
(9.77116 0.0598435 0)
(9.76048 0.045222 0)
(9.75111 0.0302858 0)
(9.74303 0.0149746 0)
(9.73625 -0.000777553 0)
(9.73076 -0.0170437 0)
(9.72655 -0.0339043 0)
(9.7236 -0.0514482 0)
(9.7219 -0.0697732 0)
(9.72139 -0.0889862 0)
(9.72204 -0.109203 0)
(9.72375 -0.130549 0)
(9.72643 -0.153153 0)
(9.72995 -0.177147 0)
(9.73412 -0.202659 0)
(9.73874 -0.229803 0)
(9.74352 -0.258664 0)
(9.74813 -0.28928 0)
(9.75221 -0.321622 0)
(9.75533 -0.355566 0)
(9.75708 -0.390867 0)
(9.75708 -0.427149 0)
(9.75501 -0.4639 0)
(10.0015 0.0762931 0)
(10.0206 0.230425 0)
(10.0608 0.383037 0)
(10.1214 0.530395 0)
(10.1996 0.669528 0)
(10.2926 0.798242 0)
(10.3975 0.915005 0)
(10.5111 1.01889 0)
(10.6302 1.10949 0)
(10.7518 1.18681 0)
(10.8731 1.25118 0)
(10.9917 1.30319 0)
(11.1054 1.34358 0)
(11.2126 1.37322 0)
(11.3117 1.39307 0)
(11.402 1.40411 0)
(11.4827 1.40734 0)
(11.5535 1.40373 0)
(11.6143 1.39419 0)
(11.6653 1.37959 0)
(11.7067 1.36073 0)
(11.739 1.33833 0)
(11.7626 1.31304 0)
(11.7783 1.28543 0)
(11.7864 1.25602 0)
(11.7878 1.22524 0)
(11.7829 1.19346 0)
(11.7724 1.16101 0)
(11.7569 1.12817 0)
(11.737 1.09515 0)
(11.7131 1.06217 0)
(11.6857 1.02937 0)
(11.6553 0.996888 0)
(11.6224 0.964825 0)
(11.5872 0.933264 0)
(11.5502 0.902273 0)
(11.5116 0.871901 0)
(11.4718 0.842183 0)
(11.431 0.813146 0)
(11.3894 0.784806 0)
(11.3473 0.757171 0)
(11.3049 0.730243 0)
(11.2623 0.704019 0)
(11.2196 0.678491 0)
(11.1771 0.653646 0)
(11.1348 0.629471 0)
(11.0928 0.605948 0)
(11.0513 0.58306 0)
(11.0103 0.560784 0)
(10.9699 0.5391 0)
(10.9302 0.517986 0)
(10.8912 0.497417 0)
(10.853 0.477371 0)
(10.8156 0.457822 0)
(10.7791 0.438747 0)