/*--------------------------------*- C++ -*----------------------------------*\
| =========                 |                                                 |
| \\      /  F ield         | OpenFOAM: The Open Source CFD Toolbox           |
|  \\    /   O peration     | Version:  2406                                  |
|   \\  /    A nd           | Website:  www.openfoam.com                      |
|    \\/     M anipulation  |                                                 |
\*---------------------------------------------------------------------------*/
FoamFile
{
    version     2.0;
    format      ascii;
    arch        "LSB;label=32;scalar=64";
    class       volScalarField;
    location    "21";
    object      p;
}
// * * * * * * * * * * * * * * * * * * * * * * * * * * * * * * * * * * * * * //

dimensions      [0 2 -2 0 0 0 0];

internalField   nonuniform List<scalar> 
1800
(
4.31052
3.4668
3.02677
2.82695
2.69389
2.58607
2.48903
2.39306
2.29319
2.14324
3.52728
3.21282
2.97639
2.82116
2.69905
2.59242
2.49317
2.39465
2.28957
2.16144
3.15096
3.06246
2.93812
2.81675
2.70567
2.60244
2.50412
2.40782
2.31098
2.21231
3.01008
2.98462
2.90957
2.81228
2.71247
2.61518
2.52132
2.43099
2.34444
2.26335
2.95545
2.94961
2.89569
2.81194
2.71983
2.62776
2.53881
2.45455
2.37604
2.3048
2.95871
2.95274
2.89919
2.81652
2.7263
2.63701
2.55189
2.47249
2.39956
2.33389
3.01945
2.99374
2.91988
2.82574
2.73121
2.64175
2.55875
2.48261
2.4132
2.3505
3.16514
3.07644
2.95407
2.83726
2.73362
2.6415
2.55908
2.48471
2.41711
2.35562
3.54406
3.22938
2.99485
2.84404
2.72932
2.63416
2.55215
2.47895
2.4121
2.35068
4.32758
3.48322
3.04415
2.84743
2.72019
2.62217
2.54101
2.46894
2.4024
2.34049
1.9983
1.99914
2.00423
2.01358
2.02541
2.03795
2.04976
2.05977
2.06728
2.07191
2.07357
2.07237
2.06855
2.06244
2.0544
2.04481
2.03403
2.02235
2.01007
1.99741
1.98456
1.97167
1.95883
1.94615
1.93365
1.92139
1.90937
1.89759
1.88605
1.87474
1.86364
1.85273
1.84199
1.83139
1.82091
1.99766
1.99845
2.00312
2.01148
2.02205
2.03333
2.04406
2.05325
2.06025
2.06468
2.06641
2.06549
2.06212
2.05658
2.04918
2.04026
2.03013
2.0191
2.00742
1.9953
1.98293
1.97045
1.95797
1.94558
1.93332
1.92124
1.90937
1.8977
1.88624
1.87498
1.8639
1.853
1.84225
1.83164
1.82115
1.99251
1.99383
1.99892
2.00727
2.01754
2.02837
2.03862
2.04744
2.0542
2.05855
2.06035
2.05965
2.05662
2.05149
2.04457
2.03616
2.02656
2.01604
2.00485
1.99318
1.98123
1.96911
1.95696
1.94483
1.9328
1.92091
1.90918
1.89763
1.88625
1.87505
1.86402
1.85315
1.84241
1.8318
1.82131
1.98159
1.98467
1.99158
2.00138
2.01263
2.02405
2.0346
2.04351
2.05026
2.05456
2.05633
2.05565
2.05269
2.0477
2.04098
2.03282
2.02351
2.0133
2.00243
1.99109
1.97944
1.96762
1.95573
1.94385
1.93204
1.92033
1.90876
1.89733
1.88606
1.87495
1.86398
1.85315
1.84245
1.83187
1.82139
1.96452
1.9709
1.98134
1.99404
2.00741
2.02024
2.03162
2.04092
2.04777
2.052
2.05362
2.05278
2.04969
2.04464
2.03792
2.02983
2.02064
2.01061
1.99996
1.98886
1.97746
1.9659
1.95425
1.94261
1.93101
1.91949
1.90809
1.89681
1.88567
1.87466
1.86378
1.85302
1.84238
1.83184
1.82139
1.94041
1.95252
1.96875
1.9859
2.00238
2.0172
2.02969
2.03946
2.04635
2.05038
2.05169
2.05051
2.04712
2.04183
2.03497
2.02682
2.01767
2.00774
1.99724
1.98634
1.97517
1.96385
1.95246
1.94105
1.92968
1.91839
1.90718
1.89608
1.88509
1.87421
1.86345
1.85278
1.84222
1.83174
1.82134
1.90794
1.92932
1.95464
1.97803
1.99838
2.01547
2.02909
2.03919
2.0459
2.04948
2.05024
2.04851
2.04464
2.03899
2.03186
2.02358
2.01439
2.00452
1.99415
1.98345
1.97251
1.96145
1.95032
1.93918
1.92807
1.91702
1.90604
1.89514
1.88434
1.87362
1.86299
1.85244
1.84197
1.83157
1.82123
1.85937
1.89903
1.93993
1.97177
1.9965
2.01578
2.03022
2.04025
2.04639
2.04918
2.04911
2.04661
2.04209
2.03593
2.02846
2.01998
2.01072
2.0009
1.99067
1.98016
1.96948
1.95869
1.94786
1.93702
1.9262
1.91542
1.9047
1.89403
1.88343
1.8729
1.86243
1.85201
1.84166
1.83135
1.8211
1.76476
1.85815
1.92722
1.96959
1.99844
2.01918
2.03362
2.04287
2.04786
2.04942
2.04818
2.04467
2.03935
2.03259
2.02471
2.016
2.00667
1.99689
1.98682
1.97653
1.96613
1.95565
1.94514
1.93462
1.92412
1.91364
1.9032
1.89279
1.88242
1.87209
1.86179
1.85153
1.8413
1.8311
1.82093
1.6613
1.83837
1.93278
1.97954
2.00816
2.02751
2.0401
2.04732
2.05035
2.05013
2.04738
2.04265
2.03639
2.02895
2.02064
2.01169
2.0023
1.9926
1.98269
1.97266
1.96256
1.95241
1.94224
1.93207
1.92191
1.91175
1.9016
1.89146
1.88134
1.87122
1.86111
1.85101
1.84092
1.83083
1.82075
1.90342
1.93416
1.9842
2.01169
2.02942
2.04205
2.04996
2.05359
2.05375
2.05122
2.04664
2.04051
2.03322
2.02507
2.01632
2.00717
1.99773
1.98813
1.97844
1.96868
1.9589
1.9491
1.93929
1.92948
1.91966
1.90983
1.89998
1.89012
1.88024
1.87033
1.86041
1.85048
1.84052
1.83055
1.82057
2.03528
2.02198
2.03782
2.0483
2.05507
2.05973
2.06172
2.06087
2.05758
2.0524
2.0458
2.03819
2.02985
2.02102
2.01188
2.00255
1.99313
1.98367
1.9742
1.96474
1.95529
1.94585
1.93641
1.92695
1.91747
1.90796
1.89841
1.88881
1.87917
1.86948
1.85974
1.84996
1.84014
1.83029
1.82039
2.12784
2.09626
2.08897
2.08511
2.08163
2.07817
2.07383
2.06815
2.06121
2.05328
2.04467
2.03561
2.0263
2.01687
2.00741
1.99798
1.98862
1.97934
1.97013
1.96099
1.95188
1.9428
1.93371
1.92459
1.91544
1.90623
1.89696
1.88761
1.87819
1.8687
1.85913
1.8495
1.8398
1.83004
1.82024
2.19563
2.15584
2.13393
2.11857
2.106
2.09501
2.08465
2.07433
2.0639
2.05342
2.04297
2.03266
2.02254
2.01265
2.00299
1.99355
1.98432
1.97527
1.96635
1.95753
1.94877
1.94003
1.93127
1.92248
1.91363
1.9047
1.89567
1.88655
1.87733
1.86802
1.8586
1.84909
1.83951
1.82984
1.82011
2.24453
2.20069
2.16961
2.14551
2.12546
2.10813
2.09263
2.07834
2.06496
2.05235
2.04044
2.02919
2.01851
2.00836
1.99865
1.98932
1.98031
1.97153
1.96293
1.95445
1.94602
1.93761
1.92917
1.92067
1.91209
1.9034
1.8946
1.88568
1.87663
1.86746
1.85818
1.84878
1.83928
1.82969
1.82001
2.27701
2.23088
2.19408
2.16381
2.13816
2.11602
2.09661
2.07933
2.06378
2.04969
2.03683
2.02503
2.01412
2.00394
1.99438
1.98529
1.97658
1.96814
1.95989
1.95175
1.94366
1.93556
1.92742
1.91919
1.91085
1.90238
1.89376
1.88501
1.8761
1.86706
1.85787
1.84856
1.83913
1.8296
1.81997
2.29498
2.2473
2.20695
2.17264
2.14322
2.11788
2.09593
2.07679
2.05998
2.04513
2.0319
2.02001
2.00922
1.9993
1.99007
1.98137
1.97307
1.96504
1.95718
1.94941
1.94166
1.93387
1.92601
1.91802
1.9099
1.90162
1.89317
1.88455
1.87576
1.86681
1.8577
1.84845
1.83908
1.82958
1.81998
2.30027
2.25136
2.20879
2.17204
2.14045
2.11337
2.09019
2.0703
2.05317
2.03832
2.02533
2.01385
2.00356
1.9942
1.98555
1.97741
1.96964
1.96211
1.9547
1.94735
1.93996
1.9325
1.92491
1.91716
1.90924
1.90113
1.89282
1.88432
1.87562
1.86674
1.85769
1.84848
1.83913
1.82965
1.82006
2.29472
2.24463
2.20062
2.16255
2.13001
2.10244
2.0792
2.05961
2.04306
2.02898
2.01687
2.00631
1.99694
1.98846
1.98063
1.97325
1.96617
1.95925
1.95238
1.94549
1.93851
1.93139
1.92409
1.91658
1.90886
1.9009
1.89272
1.8843
1.87568
1.86685
1.85783
1.84864
1.8393
1.82982
1.82023
2.28355
2.2323
2.18728
2.14855
2.11581
2.08848
2.06585
2.04715
2.03167
2.01875
2.00783
1.99842
1.99013
1.98266
1.97575
1.9692
1.96285
1.95657
1.95026
1.94385
1.93728
1.93051
1.92349
1.91622
1.90868
1.90088
1.8928
1.88447
1.8759
1.86711
1.85811
1.84892
1.83957
1.83008
1.82047
1.81054
1.80026
1.79005
1.77989
1.76978
1.75969
1.74963
1.73958
1.72954
1.7195
1.81076
1.80045
1.79021
1.78003
1.76989
1.75978
1.7497
1.73962
1.72956
1.7195
1.81091
1.80059
1.79033
1.78013
1.76998
1.75985
1.74975
1.73966
1.72958
1.7195
1.81099
1.80067
1.79042
1.78021
1.77005
1.75992
1.7498
1.73971
1.72962
1.71952
1.81102
1.80072
1.79047
1.78027
1.77011
1.75998
1.74986
1.73976
1.72967
1.71957
1.811
1.80073
1.79051
1.78032
1.77017
1.76004
1.74993
1.73983
1.72974
1.71965
1.81095
1.80072
1.79053
1.78037
1.77023
1.76012
1.75002
1.73992
1.72984
1.71975
1.81088
1.80069
1.79054
1.78041
1.7703
1.7602
1.75011
1.74003
1.72995
1.71988
1.81078
1.80066
1.79055
1.78045
1.77037
1.76029
1.75022
1.74016
1.73009
1.72003
1.81068
1.80061
1.79055
1.78049
1.77044
1.76039
1.75034
1.74029
1.73024
1.72019
1.81058
1.80057
1.79056
1.78054
1.77052
1.76049
1.75046
1.74042
1.73039
1.72036
1.81047
1.80053
1.79057
1.78058
1.77059
1.76059
1.75057
1.74056
1.73054
1.72052
1.81039
1.8005
1.79058
1.78063
1.77066
1.76068
1.75068
1.74068
1.73068
1.72067
1.81032
1.80047
1.79059
1.78067
1.77073
1.76076
1.75078
1.74079
1.73079
1.7208
1.81027
1.80047
1.79061
1.78072
1.77079
1.76083
1.75086
1.74088
1.73089
1.7209
1.81026
1.80048
1.79065
1.78077
1.77085
1.7609
1.75093
1.74095
1.73096
1.72097
1.81029
1.80053
1.7907
1.78083
1.77091
1.76096
1.75099
1.741
1.73101
1.72102
1.81038
1.80062
1.79079
1.78091
1.77098
1.76102
1.75104
1.74105
1.73105
1.72104
1.81054
1.80076
1.79091
1.78101
1.77107
1.7611
1.7511
1.74109
1.73107
1.72105
1.81075
1.80095
1.79108
1.78115
1.77118
1.76118
1.75116
1.74113
1.73109
1.72105
1.70945
1.69939
1.68932
1.67922
1.6691
1.65896
1.64878
1.63855
1.62828
1.61795
1.60754
1.59705
1.58646
1.57574
1.56486
1.55379
1.54248
1.53087
1.51889
1.50644
1.49338
1.47956
1.46474
1.44863
1.43086
1.41092
1.38817
1.36179
1.33078
1.29396
1.25002
1.19764
1.1357
1.06361
0.981624
1.70943
1.69935
1.68925
1.67913
1.66899
1.65881
1.64859
1.63833
1.628
1.61761
1.60713
1.59655
1.58585
1.57499
1.56395
1.55268
1.54113
1.52922
1.51688
1.50398
1.49038
1.4759
1.4603
1.44327
1.42441
1.40322
1.37905
1.35114
1.31851
1.2801
1.2347
1.18118
1.11858
1.04648
0.965239
1.70941
1.69932
1.6892
1.67906
1.66889
1.65869
1.64844
1.63814
1.62778
1.61733
1.60679
1.59614
1.58535
1.57438
1.56321
1.55178
1.54003
1.52789
1.51526
1.50202
1.48802
1.47306
1.45689
1.4392
1.41959
1.39755
1.37246
1.34353
1.30985
1.27034
1.22384
1.16921
1.10554
1.03242
0.950342
1.70943
1.69932
1.68919
1.67904
1.66886
1.65864
1.64838
1.63806
1.62767
1.6172
1.60663
1.59594
1.58511
1.57409
1.56286
1.55136
1.53953
1.52729
1.51455
1.50119
1.48705
1.47193
1.4556
1.43774
1.41795
1.39573
1.37045
1.34132
1.30735
1.26741
1.22017
1.16431
1.09868
1.02276
0.937185
1.70947
1.69936
1.68923
1.67907
1.66889
1.65867
1.6484
1.63808
1.62769
1.61723
1.60666
1.59598
1.58515
1.57415
1.56294
1.55146
1.53966
1.52747
1.5148
1.50152
1.4875
1.47254
1.45642
1.43884
1.41939
1.39758
1.37276
1.34409
1.31048
1.27058
1.22279
1.16533
1.09659
1.01561
0.923278
1.70955
1.69943
1.68931
1.67916
1.66898
1.65877
1.64852
1.63822
1.62786
1.61742
1.60689
1.59626
1.58549
1.57456
1.56344
1.55208
1.54043
1.52843
1.51599
1.503
1.48934
1.47484
1.45927
1.44237
1.42374
1.40289
1.37915
1.35159
1.319
1.27975
1.23177
1.17261
1.09975
1.01145
0.908377
1.70965
1.69955
1.68944
1.6793
1.66914
1.65896
1.64873
1.63847
1.62815
1.61777
1.60731
1.59677
1.58611
1.57532
1.56436
1.55321
1.54181
1.53012
1.51806
1.50554
1.49246
1.47868
1.46399
1.44814
1.43078
1.41142
1.38938
1.36369
1.33297
1.2953
1.24803
1.18774
1.11054
1.01304
0.894993
1.7098
1.69971
1.68961
1.67949
1.66936
1.65921
1.64903
1.63882
1.62856
1.61826
1.60791
1.59748
1.58698
1.57637
1.56564
1.55476
1.54371
1.53243
1.52088
1.50899
1.49668
1.48382
1.47027
1.4558
1.4401
1.42273
1.40304
1.38005
1.35232
1.31766
1.27285
1.21319
1.13271
1.02497
0.887054
1.70996
1.69989
1.68981
1.67972
1.66963
1.65951
1.64939
1.63924
1.62907
1.61887
1.60863
1.59836
1.58803
1.57765
1.56719
1.55664
1.54599
1.5352
1.52426
1.5131
1.50167
1.4899
1.47767
1.46481
1.45108
1.43611
1.41934
1.39993
1.37652
1.34697
1.30774
1.25309
1.17443
1.0595
0.894548
1.71014
1.70009
1.69004
1.67998
1.66992
1.65986
1.64979
1.63971
1.62963
1.61954
1.60944
1.59933
1.5892
1.57906
1.5689
1.55871
1.54849
1.53824
1.52793
1.51756
1.50708
1.49646
1.48564
1.4745
1.46289
1.45056
1.43712
1.42197
1.40417
1.38219
1.35338
1.31316
1.2547
1.16556
1.00036
1.71033
1.7003
1.69027
1.68024
1.67022
1.66021
1.6502
1.6402
1.63021
1.62023
1.61027
1.60032
1.5904
1.5805
1.57064
1.56081
1.55103
1.5413
1.53164
1.52203
1.51249
1.50301
1.49357
1.48412
1.4746
1.46488
1.45478
1.44403
1.43228
1.41911
1.40408
1.38743
1.37368
1.38313
1.46622
1.71051
1.7005
1.69049
1.6805
1.67051
1.66054
1.65059
1.64066
1.63076
1.62089
1.61105
1.60126
1.59153
1.58187
1.57228
1.56279
1.55342
1.54418
1.5351
1.5262
1.51751
1.50906
1.50087
1.49294
1.48528
1.47787
1.47068
1.46367
1.45688
1.45047
1.44497
1.44218
1.44852
1.48111
1.54959
1.71067
1.70068
1.69069
1.68073
1.67077
1.66085
1.65094
1.64108
1.63125
1.62147
1.61175
1.60209
1.59253
1.58306
1.57371
1.56451
1.55549
1.54666
1.53808
1.52978
1.52181
1.51421
1.50705
1.50036
1.4942
1.48862
1.48366
1.47942
1.47606
1.47392
1.47365
1.47688
1.488
1.51507
1.55133
1.71081
1.70083
1.69086
1.68091
1.67099
1.66109
1.65123
1.64141
1.63164
1.62193
1.6123
1.60276
1.59332
1.58401
1.57485
1.56587
1.55711
1.5486
1.5404
1.53255
1.52512
1.51817
1.51176
1.50598
1.5009
1.4966
1.49317
1.49073
1.48949
1.48975
1.49204
1.49755
1.50899
1.5304
1.55647
1.71092
1.70094
1.69099
1.68105
1.67114
1.66127
1.65143
1.64164
1.63191
1.62226
1.61268
1.60321
1.59386
1.58465
1.57561
1.56678
1.5582
1.5499
1.54194
1.53439
1.5273
1.52075
1.51482
1.5096
1.50519
1.50166
1.49913
1.49772
1.49761
1.49903
1.50238
1.50844
1.51881
1.53579
1.55568
1.71099
1.70102
1.69107
1.68113
1.67123
1.66136
1.65154
1.64177
1.63206
1.62242
1.61288
1.60344
1.59413
1.58497
1.57599
1.56723
1.55872
1.55052
1.54267
1.53524
1.5283
1.52193
1.51621
1.51124
1.50711
1.50393
1.50179
1.50083
1.50119
1.50305
1.50666
1.51246
1.52137
1.5345
1.54904
1.71103
1.70106
1.6911
1.68116
1.67126
1.66139
1.65156
1.64179
1.63207
1.62244
1.61289
1.60345
1.59414
1.58497
1.57599
1.56722
1.5587
1.55048
1.54261
1.53516
1.52819
1.52178
1.51603
1.51102
1.50686
1.50367
1.50156
1.50066
1.5011
1.50301
1.50655
1.51191
1.51943
1.52945
1.53973
1.71105
1.70106
1.69109
1.68114
1.67122
1.66134
1.6515
1.6417
1.63197
1.62231
1.61273
1.60325
1.59389
1.58468
1.57563
1.56678
1.55817
1.54984
1.54184
1.53422
1.52706
1.52043
1.51442
1.50913
1.50468
1.50119
1.49881
1.49767
1.49795
1.49979
1.50325
1.50836
1.51502
1.52285
1.52999
1.71103
1.70103
1.69104
1.68108
1.67113
1.66122
1.65135
1.64153
1.63175
1.62204
1.61241
1.60286
1.59342
1.58411
1.57495
1.56596
1.55718
1.54865
1.54041
1.53251
1.52502
1.518
1.51155
1.50576
1.50076
1.4967
1.49376
1.49214
1.49208
1.49377
1.49734
1.5027
1.50942
1.51643
1.52174
1.71101
1.70099
1.69098
1.68099
1.67102
1.66108
1.65117
1.64131
1.63149
1.62172
1.61202
1.6024
1.59287
1.58344
1.57414
1.565
1.55603
1.54726
1.53875
1.53053
1.52266
1.5152
1.50823
1.50186
1.49622
1.49148
1.48787
1.48566
1.48517
1.48673
1.49057
1.49664
1.50429
1.51188
1.51688
0.891112
0.794511
0.694686
0.594206
0.494978
0.398181
0.304368
0.213517
0.125049
0.0396922
0.876237
0.781837
0.684668
0.58694
0.490224
0.3955
0.30328
0.213557
0.125191
0.0398254
0.86093
0.767045
0.671464
0.576046
0.481893
0.389632
0.299574
0.211653
0.124545
0.0398409
0.844296
0.748544
0.653341
0.559951
0.468674
0.379561
0.292542
0.207336
0.122529
0.0395762
0.823044
0.72319
0.628105
0.537487
0.450169
0.365389
0.282556
0.201096
0.119517
0.0391555
0.79538
0.689399
0.59552
0.509446
0.427648
0.348469
0.270819
0.193852
0.116072
0.0386944
0.760717
0.647206
0.557586
0.478709
0.403984
0.331283
0.259229
0.186874
0.112871
0.0383096
0.716685
0.596452
0.517321
0.448956
0.382513
0.316544
0.249783
0.181448
0.110537
0.0380572
0.649002
0.531432
0.47616
0.422497
0.365366
0.306067
0.243865
0.178471
0.109581
0.0380419
0.525836
0.454505
0.443271
0.403459
0.354087
0.300408
0.241545
0.177818
0.110303
0.0388936
)
;

boundaryField
{
    inlet
    {
        type            zeroGradient;
    }
    outlet
    {
        type            fixedValue;
        value           uniform 0;
    }
    upperWall
    {
        type            zeroGradient;
    }
    lowerWall
    {
        type            zeroGradient;
    }
    frontAndBack
    {
        type            empty;
    }
}


// ************************************************************************* //
