/*--------------------------------*- C++ -*----------------------------------*\
| =========                 |                                                 |
| \\      /  F ield         | OpenFOAM: The Open Source CFD Toolbox           |
|  \\    /   O peration     | Version:  2406                                  |
|   \\  /    A nd           | Website:  www.openfoam.com                      |
|    \\/     M anipulation  |                                                 |
\*---------------------------------------------------------------------------*/
FoamFile
{
    version     2.0;
    format      ascii;
    arch        "LSB;label=32;scalar=64";
    class       surfaceScalarField;
    location    "21";
    object      phi;
}
// * * * * * * * * * * * * * * * * * * * * * * * * * * * * * * * * * * * * * //

dimensions      [0 3 -1 0 0 0 0];

oriented        oriented;

internalField   nonuniform List<scalar> 
3480
(
0.0520828
0.0146184
0.0385084
0.0135748
0.0303049
0.00820349
0.0257314
0.00457334
0.0233849
0.00234594
0.022486
0.000898415
0.0226766
-0.000190863
0.024013
-0.00133519
0.0272997
-0.00328714
-0.00876594
0.0360657
0.0700855
0.0112339
0.067351
0.0163109
0.0627599
0.0127961
0.059022
0.00831067
0.0567359
0.00463084
0.0558215
0.00181227
0.0561302
-0.000498762
0.0576512
-0.00285545
0.0604618
-0.00609703
-0.0115871
0.0632812
0.0710892
0.00684557
0.0752605
0.0121413
0.0769997
0.0110566
0.0774515
0.00785833
0.077592
0.0044904
0.0779133
0.00149128
0.0786248
-0.0012096
0.0797553
-0.00398564
0.0810385
-0.00738069
-0.0119642
0.0814154
0.07045
0.00309572
0.0766497
0.00593991
0.081996
0.00570887
0.0858433
0.00401129
0.0884488
0.00188604
0.0902108
-0.000269654
0.09144
-0.00243834
0.0922623
-0.0048078
0.0925244
-0.00764289
-0.0111277
0.091687
0.069994
-0.00019952
0.0765032
-0.000572382
0.08317
-0.000958644
0.0885929
-0.00141103
0.092469
-0.00198876
0.0949669
-0.00276612
0.0963621
-0.00383274
0.0968405
-0.00528585
0.0964002
-0.00720266
-0.00956831
0.0948413
0.0699665
-0.00346707
0.0763942
-0.0070012
0.0829173
-0.00748216
0.0881239
-0.0066166
0.0916969
-0.00556026
0.0937908
-0.00485862
0.0946734
-0.00471444
0.0945446
-0.00515639
0.0934704
-0.006128
-0.00750252
0.0914053
0.0703698
-0.00713698
0.0763363
-0.0129656
0.0812788
-0.0124239
0.0845225
-0.00985915
0.0862847
-0.00732174
0.0869161
-0.00548962
0.0866856
-0.00448365
0.0857307
-0.00420104
0.0840761
-0.00447291
-0.00511439
0.0816887
0.0709724
-0.0114071
0.0748075
-0.0168002
0.0759812
-0.0135958
0.0755979
-0.00947641
0.0745702
-0.00629536
0.0732956
-0.00421589
0.0718661
-0.00305453
0.0702238
-0.00255876
0.0682579
-0.00250679
-0.00272285
0.0658666
0.069967
-0.0146741
0.0669064
-0.0137376
0.0617755
-0.00846586
0.0572517
-0.00495452
0.0538552
-0.00290035
0.0513697
-0.00173151
0.0494374
-0.0011229
0.0477334
-0.000855054
0.0460115
-0.000785115
-0.000823561
0.044112
0.0520261
0.0382884
0.0298223
0.0248675
0.021967
0.0202353
0.0191124
0.0182573
0.0174721
0.0166485
-0.000130666
0.000130795
-0.000341044
0.000210581
-0.000494538
0.000153712
-0.000515372
2.11577e-05
-0.000380984
-0.000133947
-0.000101972
-0.000278433
0.000293308
-0.000394598
0.000769782
-0.000475698
0.00129249
-0.000521902
0.00183046
-0.000537183
0.0023585
-0.00052732
0.0028576
-0.000498518
0.00331471
-0.000456679
0.00372191
-0.00040695
0.00407555
-0.000353568
0.00437527
-0.000299828
0.00462315
-0.00024814
0.00482293
-0.000200162
0.00497936
-0.000156905
0.00509773
-0.000118894
0.00518344
-8.62602e-05
0.00524178
-5.88763e-05
0.00527769
-3.64126e-05
0.00529568
-1.84377e-05
0.00529974
-4.4438e-06
0.00529336
6.08706e-06
0.00527947
1.36771e-05
0.00526052
1.88143e-05
0.0052385
2.19542e-05
0.005215
2.35015e-05
0.00519125
2.38146e-05
0.00516816
2.32008e-05
0.00514637
2.19195e-05
0.00512635
2.01861e-05
1.81728e-05
0.00510835
-0.000238551
0.000369576
-0.000564537
0.000537041
-0.000721151
0.000310964
-0.000574423
-0.000124782
-8.81052e-05
-0.000619223
0.000709635
-0.00107488
0.00175571
-0.00143917
0.00297356
-0.00169194
0.00428715
-0.00183386
0.00562886
-0.00187736
0.00694328
-0.00184039
0.00818818
-0.00174233
0.00933393
-0.00160167
0.010362
-0.00143466
0.0112633
-0.0012548
0.012036
-0.00107276
0.0126838
-0.000896498
0.0132145
-0.000731603
0.0136383
-0.000581681
0.0139671
-0.000448712
0.0142132
-0.000333434
0.014389
-0.000235646
0.0145061
-0.000154493
0.0145755
-8.86796e-05
0.0146071
-3.66557e-05
0.0146094
3.2512e-06
0.0145899
3.27315e-05
0.0145551
5.3422e-05
0.0145101
6.68557e-05
0.0144592
7.44282e-05
0.0144057
7.73842e-05
0.0143523
7.68065e-05
0.0143009
7.36231e-05
0.0142528
6.86069e-05
6.23933e-05
0.0142089
-0.000248483
0.000618106
-0.000500566
0.000789407
-0.000451329
0.000261911
3.40025e-05
-0.000609701
0.000971172
-0.00155577
0.00230314
-0.00240606
0.00393704
-0.00307216
0.0057694
-0.00352332
0.00770156
-0.00376504
0.00964793
-0.00382279
0.0115393
-0.00373097
0.0133236
-0.00352591
0.0149643
-0.00324188
0.0164389
-0.00290894
0.0177363
-0.00255213
0.0188548
-0.00219127
0.0197994
-0.00184134
0.0205804
-0.001513
0.0212116
-0.00121323
0.0217084
-0.000946034
0.0220875
-0.000713064
0.0223655
-0.000514173
0.0225584
-0.000347922
0.0226812
-0.000211993
0.0227477
-0.000103515
0.02277
-1.93389e-05
0.0227587
4.37728e-05
0.0227229
8.89903e-05
0.0226703
0.000119316
0.0226072
0.000137511
0.0225386
0.000146057
0.0224683
0.000147135
0.0223994
0.000142622
0.022334
0.000134101
0.000122877
0.0222737
-0.000201482
0.000819622
-0.000243472
0.000831386
0.000183242
-0.000164367
0.00116678
-0.00159289
0.00266594
-0.00305455
0.00457703
-0.00431662
0.00677549
-0.00526998
0.00913932
-0.00588648
0.0115609
-0.00618593
0.0139516
-0.00621289
0.0162428
-0.00602161
0.0183844
-0.00566706
0.0203428
-0.00519992
0.0220984
-0.00466419
0.0236427
-0.00409629
0.0249766
-0.00352503
0.0261075
-0.00297225
0.027048
-0.00245354
0.0278139
-0.00197925
0.028423
-0.00155536
0.0288942
-0.00118443
0.0292461
-0.000866354
0.0294971
-0.000599085
0.0296641
-0.00037922
0.0297628
-0.00020249
0.0298074
-6.41437e-05
0.0298103
4.07408e-05
0.0297821
0.000117031
0.0297319
0.000169371
0.0296672
0.000202066
0.0295942
0.000219015
0.0295176
0.000223664
0.0294412
0.000219003
0.0293678
0.000207567
0.000191461
0.0292992
-0.000107526
0.000927331
0.000205502
0.000519332
0.001201
-0.00115928
0.00285853
-0.00324968
0.00503989
-0.00523514
0.00757956
-0.00685557
0.0103232
-0.00801288
0.013141
-0.00870361
0.0159307
-0.00897493
0.0186151
-0.00889672
0.0211391
-0.00854502
0.0234654
-0.0079929
0.0255717
-0.00730579
0.0274473
-0.00653951
0.029091
-0.00573975
0.0305087
-0.00494252
0.0317115
-0.00417496
0.0327145
-0.00345646
0.033535
-0.00279985
0.0341921
-0.00221253
0.0347052
-0.00169759
0.0350935
-0.00125475
0.0353755
-0.000881257
0.0355687
-0.000572606
0.0356892
-0.000323127
0.0357514
-0.0001265
0.0357681
2.38559e-05
0.0357505
0.000134485
0.035708
0.000211666
0.0356487
0.000261256
0.035579
0.000288585
0.0355042
0.0002984
0.0354283
0.000294837
0.0353544
0.000281425
0.000261108
0.0352848
7.16391e-05
0.000856126
0.00095736
-0.000367084
0.00277756
-0.0029786
0.00531144
-0.00578288
0.00828665
-0.00820981
0.0114761
-0.0100443
0.0147115
-0.0112476
0.0178754
-0.0118668
0.0208891
-0.0119879
0.0237022
-0.0117091
0.0262845
-0.0111268
0.0286208
-0.0103286
0.0307061
-0.0093907
0.0325435
-0.00837659
0.0341416
-0.0073377
0.0355134
-0.00631413
0.0366744
-0.00533588
0.0376422
-0.0044242
0.0384353
-0.00359298
0.0390727
-0.00285003
0.0395733
-0.0021983
0.0399555
-0.00163699
0.0402365
-0.00116245
0.0404328
-0.000769022
0.0405592
-0.000449711
0.0406293
-0.000196751
0.0406551
-2.04829e-06
0.0406469
0.000142455
0.0406139
0.000244521
0.0405636
0.000311418
0.0405023
0.000349794
0.040435
0.000365594
0.0403658
0.000364026
0.0402976
0.000349554
0.000325922
0.0402327
0.000454029
0.000400448
0.00230034
-0.00221287
0.00530197
-0.00598182
0.0089186
-0.00939996
0.0127402
-0.0120313
0.0165174
-0.0138212
0.0201099
-0.0148395
0.0234445
-0.0152009
0.0264886
-0.0150314
0.0292326
-0.0144526
0.0316805
-0.0135742
0.0338439
-0.0124916
0.0357388
-0.0112852
0.0373834
-0.010021
0.0387973
-0.00875141
0.0400003
-0.00751708
0.0410123
-0.00634788
0.0418528
-0.00526467
0.0425405
-0.00428071
0.0430934
-0.00340303
0.0435287
-0.0026337
0.0438625
-0.00197089
0.0441098
-0.00140985
0.0442844
-0.000943775
0.044399
-0.00056444
0.0444649
-0.000262826
0.0444923
-2.95761e-05
0.04449
0.000144621
0.0444656
0.000268743
0.0444257
0.000351219
0.0443756
0.000399783
0.0443197
0.000421379
0.0442616
0.000422111
0.0442039
0.000407234
0.000381174
0.0441486
0.00131592
-0.000914564
0.00485789
-0.00575994
0.0094917
-0.0106174
0.0142926
-0.0142019
0.0188413
-0.0165805
0.0229771
-0.0179571
0.0266564
-0.0185187
0.0298883
-0.0184326
0.0327042
-0.0178469
0.035143
-0.016891
0.0372447
-0.0156756
0.0390475
-0.0142941
0.0405865
-0.012824
0.0418936
-0.0113279
0.0429971
-0.00985492
0.0439224
-0.00844238
0.0446919
-0.00711735
0.0453253
-0.00589816
0.0458404
-0.00479587
0.0462529
-0.00381565
0.0465771
-0.00295792
0.0468255
-0.00221946
0.0470099
-0.00159429
0.0471404
-0.00107444
0.0472265
-0.000650647
0.0472765
-0.000312908
0.0472978
-5.0917e-05
0.0472967
0.000145549
0.047279
0.000286336
0.0472495
0.000380697
0.047212
0.00043714
0.04717
0.000463326
0.0471261
0.000466006
0.0470823
0.000451014
0.000423278
0.0470402
0.0036268
-0.00454444
0.0101348
-0.0122705
0.016586
-0.0170708
0.0222403
-0.0198578
0.027027
-0.0213679
0.0310271
-0.0219575
0.0343503
-0.0218421
0.0371018
-0.0211841
0.0393741
-0.0201191
0.0412463
-0.0187629
0.0427854
-0.0172145
0.0440482
-0.0155568
0.0450824
-0.0138582
0.0459278
-0.0121733
0.0466175
-0.0105446
0.0471785
-0.00900347
0.047633
-0.00757196
0.0479991
-0.00626436
0.0482915
-0.00508838
0.0485223
-0.00404655
0.0487015
-0.0031372
0.0488375
-0.00235547
0.0489373
-0.00169413
0.049007
-0.00114421
0.049052
-0.000695671
0.0490769
-0.000337826
0.0490857
-5.98046e-05
0.0490821
0.000149124
0.0490692
0.000299273
0.0490495
0.00040033
0.0490254
0.000461216
0.0489987
0.000489969
0.048971
0.000493695
0.0489435
0.000478544
0.000449727
0.048917
0.0124516
-0.0169971
0.0216288
-0.0214504
0.028345
-0.0237897
0.0334726
-0.0249864
0.0374394
-0.0253351
0.0405196
-0.0250382
0.0429069
-0.0242297
0.0447455
-0.0230228
0.0461479
-0.0215214
0.0472048
-0.0198197
0.0479905
-0.018
0.0485659
-0.0161322
0.0489809
-0.0142732
0.0492755
-0.012468
0.0494813
-0.0107506
0.0496228
-0.00914519
0.0497187
-0.00766801
0.0497826
-0.00632844
0.0498245
-0.00513039
0.0498513
-0.00407341
0.0498677
-0.00315365
0.0498769
-0.00236469
0.049881
-0.00169817
0.0498812
-0.00114444
0.0498786
-0.000692975
0.0498736
-0.000332835
0.0498669
-5.29976e-05
0.0498587
0.000157344
0.0498495
0.000308537
0.0498396
0.000410299
0.0498292
0.000471567
0.0498188
0.000500408
0.0498085
0.000503959
0.0497987
0.000488409
0.000459009
0.0497894
0.0388139
-0.0197479
0.0421128
-0.0247519
0.0450448
-0.0267223
0.0474511
-0.027393
0.0493229
-0.0272072
0.0506911
-0.0264067
0.0516206
-0.0251595
0.0521884
-0.0235907
0.05247
-0.021803
0.0525343
-0.0198839
0.0524415
-0.0179071
0.0522422
-0.015933
0.051978
-0.0140092
0.0516815
-0.0121717
0.0513773
-0.0104467
0.0510832
-0.00885128
0.0508108
-0.0073959
0.0505674
-0.00608521
0.0503563
-0.00491943
0.0501782
-0.0038954
0.0500319
-0.00300735
0.0499148
-0.00224759
0.0498238
-0.00160706
0.0497552
-0.00107577
0.0497055
-0.000643168
0.0496713
-0.000298493
0.0496495
-3.10164e-05
0.0496373
0.000169702
0.0496323
0.000313625
0.0496326
0.000410082
0.0496366
0.000467655
0.049643
0.000494086
0.0496507
0.00049623
0.0496591
0.000480036
0.000450556
0.0496676
0.0627276
-0.0191953
0.0619782
-0.0240029
0.0615094
-0.0262538
0.0611182
-0.0270016
0.0606733
-0.0267622
0.0601057
-0.0258391
0.059397
-0.0244507
0.0585628
-0.0227565
0.0576361
-0.0208763
0.0566558
-0.0189035
0.0556595
-0.0169109
0.0546809
-0.0149544
0.0537469
-0.0130754
0.0528779
-0.0113031
0.0520878
-0.00965684
0.0513843
-0.00814812
0.0507704
-0.00678232
0.0502451
-0.00556014
0.0498044
-0.00447886
0.0494421
-0.00353321
0.0491508
-0.00271609
0.0489224
-0.00201911
0.0487484
-0.00143299
0.0486208
-0.000947931
0.0485316
-0.000553829
0.0484738
-0.000240538
0.0484411
1.92984e-06
0.0484277
0.000183235
0.048429
0.000312553
0.0484408
0.00039846
0.0484597
0.000448833
0.0484831
0.000470774
0.0485088
0.000470572
0.0485352
0.000453685
0.00042475
0.0485611
0.0796113
-0.0173919
0.0770293
-0.0214211
0.0744278
-0.0236515
0.0719442
-0.0245174
0.0695763
-0.024394
0.0672995
-0.0235621
0.0650972
-0.0222482
0.062969
-0.0206282
0.0609274
-0.0188345
0.0589905
-0.0169665
0.0571774
-0.0150979
0.0555044
-0.0132817
0.0539834
-0.0115547
0.0526209
-0.00994101
0.0514186
-0.00845491
0.0503734
-0.00710338
0.0494788
-0.00588809
0.0487253
-0.00480693
0.0481014
-0.00385521
0.0475945
-0.00302645
0.0471914
-0.00231299
0.0468788
-0.00170641
0.0466437
-0.00119783
0.0464741
-0.000778136
0.0463586
-0.00043815
0.0462871
-0.000168781
0.0462504
3.88344e-05
0.0462407
0.000193209
0.046251
0.000302398
0.0462757
0.000373914
0.0463101
0.000414641
0.0463502
0.000430783
0.046393
0.00042783
0.0464362
0.000410544
0.000382971
0.046478
0.0892424
-0.014947
0.0858429
-0.0180206
0.0821093
-0.019917
0.0783358
-0.0207432
0.0746552
-0.0207128
0.0711301
-0.0200365
0.0677911
-0.0189088
0.0646568
-0.0174935
0.0617418
-0.0159192
0.0590578
-0.0142824
0.0566129
-0.0126531
0.0544108
-0.0110798
0.0524504
-0.00959457
0.0507259
-0.00821697
0.0492278
-0.00695722
0.047943
-0.00581904
0.0468562
-0.00480168
0.0459503
-0.00390142
0.0452075
-0.00311268
0.0446096
-0.00242872
0.0441387
-0.00184213
0.0437775
-0.00134514
0.0435096
-0.000929842
0.0433199
-0.000588298
0.0431946
-0.000312652
0.0431213
-9.52297e-05
0.0430889
7.13978e-05
0.043088
0.000194318
0.0431104
0.000280224
0.0431492
0.000335328
0.0431986
0.000365323
0.0432542
0.00037533
0.0433123
0.000369877
0.04337
0.000352889
0.000327693
0.0434253
0.0920071
-0.012112
0.0882437
-0.014256
0.0839946
-0.0156666
0.0795703
-0.0163178
0.0751691
-0.0163106
0.0709168
-0.0157833
0.0668909
-0.0148822
0.0631381
-0.0137401
0.0596855
-0.0124661
0.0565466
-0.0111433
0.0537252
-0.00983159
0.051217
-0.00857174
0.0490118
-0.0073896
0.0470944
-0.00629995
0.0454464
-0.00530964
0.044047
-0.0044201
0.0428742
-0.00362928
0.0419053
-0.00293292
0.0411179
-0.00232556
0.04049
-0.00180102
0.0400006
-0.00135287
0.03963
-0.000974563
0.0393598
-0.000659608
0.0391732
-0.000401611
0.0390551
-0.000194347
0.0389918
-3.17763e-05
0.0389715
9.18881e-05
0.0389838
0.00018216
0.03902
0.000244212
0.0390727
0.000282851
0.0391357
0.000302461
0.0392041
0.000306989
0.0392742
0.000299916
0.0393429
0.000284258
0.000262566
0.039408
0.0883325
-0.00903802
0.0844614
-0.0103835
0.0800971
-0.0113008
0.075507
-0.0117266
0.070897
-0.0116994
0.066417
-0.0113023
0.0621699
-0.0106341
0.0582211
-0.00979053
0.054608
-0.0088524
0.0513473
-0.0078823
0.048441
-0.00692514
0.0458802
-0.00601102
0.0436488
-0.00515838
0.0417257
-0.00437716
0.040087
-0.00367126
0.0387072
-0.00304068
0.0375605
-0.00248291
0.0366213
-0.00199408
0.0358651
-0.00156955
0.0352682
-0.00120439
0.0348089
-0.000893596
0.0344665
-0.00063226
0.0342225
-0.000415569
0.0340599
-0.000238882
0.0339634
-9.771e-05
0.0339195
1.22452e-05
0.0339164
9.5102e-05
0.033944
0.000154748
0.0339935
0.000194844
0.0340578
0.000218759
0.0341308
0.000229589
0.0342077
0.000230092
0.034285
0.000222721
0.0343597
0.000209575
0.000192448
0.0344299
0.0785674
-0.00591573
0.0748343
-0.00664948
0.0706913
-0.00715687
0.0663459
-0.00738026
0.0619783
-0.00733103
0.057732
-0.00705526
0.0537112
-0.00661274
0.0499844
-0.00606332
0.0465907
-0.00545848
0.0435466
-0.00483806
0.040852
-0.00423044
0.0384951
-0.0036542
0.0364569
-0.00312035
0.0347139
-0.0026343
0.0332402
-0.00219775
0.0320093
-0.0018099
0.0309948
-0.00146859
0.0301716
-0.00117083
0.0295154
-0.000913353
0.0290039
-0.000692779
0.0286162
-0.000505807
0.0283334
-0.000349235
0.0281381
-0.000220007
0.0280146
-0.000115195
0.0279492
-3.20066e-05
0.0279294
3.22274e-05
0.0279447
8.0041e-05
0.0279858
0.000113836
0.0280449
0.00013585
0.0281156
0.000148164
0.0281926
0.000152658
0.0282716
0.000151038
0.0283496
0.000144785
0.0284239
0.000135199
0.000123351
0.0284929
0.0630082
-0.00305724
0.0597371
-0.00337819
0.0561781
-0.00359782
0.0524796
-0.0036819
0.0487822
-0.0036338
0.045203
-0.00347618
0.0418291
-0.00323912
0.0387183
-0.00295275
0.0359023
-0.00264277
0.0333927
-0.00232884
0.0311866
-0.00202461
0.0292709
-0.00173876
0.0276266
-0.00147611
0.026231
-0.00123876
0.0250603
-0.00102698
0.0240906
-0.000839975
0.0232986
-0.000676284
0.0226625
-0.000534189
0.0221616
-0.000411874
0.021777
-0.000307557
0.0214914
-0.000219526
0.021289
-0.000146166
0.0211556
-8.59539e-05
0.0210785
-3.74467e-05
0.0210463
7.19612e-07
0.0210491
2.98456e-05
0.0210784
5.11615e-05
0.0211266
6.58307e-05
0.0211876
7.49386e-05
0.0212563
7.94875e-05
0.0213285
8.03923e-05
0.021401
7.84682e-05
0.0214711
7.44373e-05
0.0215371
6.8913e-05
6.24189e-05
0.0215978
0.0419627
-0.000908383
0.0395766
-0.000992581
0.0370254
-0.00104722
0.0344047
-0.00106188
0.0318086
-0.00103835
0.0293159
-0.000984162
0.0269848
-0.00090868
0.0248523
-0.000820924
0.0229373
-0.000728335
0.0212444
-0.000636378
0.0197681
-0.00054867
0.0184964
-0.000467362
0.0174137
-0.000393504
0.0165025
-0.000327431
0.0157448
-0.000268987
0.015123
-0.000217778
0.0146206
-0.000173251
0.014222
-0.000134847
0.0139129
-0.000101978
0.0136803
-7.4121e-05
0.0135124
-5.07583e-05
0.0133985
-3.14423e-05
0.0133291
-1.57238e-05
0.0132956
-3.21397e-06
0.0132904
6.48695e-06
0.013307
1.37272e-05
0.0133396
1.88673e-05
0.0133834
2.22174e-05
0.0134344
2.40953e-05
0.013489
2.47666e-05
0.0135448
2.44984e-05
0.0135995
2.3504e-05
0.0136516
2.1993e-05
0.0137001
2.01219e-05
1.80422e-05
0.0137441
0.01574
0.0147473
0.0137
0.012638
0.0115996
0.0106153
0.00970653
0.00888552
0.00815711
0.00752067
0.00697196
0.00650458
0.00611108
0.00578367
0.00551474
0.00529703
0.00512386
0.00498912
0.00488725
0.00481325
0.0047626
0.00473127
0.00471564
0.00471251
0.00471907
0.00473285
0.00475175
0.00477398
0.00479807
0.00482283
0.0048473
0.00487077
0.00489272
0.00491279
0.00493079
0.00509251
1.60171e-05
0.00507886
1.3821e-05
0.00506737
1.16611e-05
0.00505793
9.5867e-06
0.00505044
7.6299e-06
0.00504475
5.80296e-06
0.00504074
4.10716e-06
0.00503829
2.52983e-06
0.00503729
1.0517e-06
-3.56536e-07
0.00503769
0.0141697
5.54853e-05
0.0141356
4.82746e-05
0.0141066
4.10485e-05
0.0140824
3.40105e-05
0.014063
2.72877e-05
0.0140481
2.09474e-05
0.0140374
1.50036e-05
0.0140306
9.43011e-06
0.0140276
4.16375e-06
-8.85907e-07
0.0140282
0.0222194
0.000109998
0.0221715
9.62808e-05
0.0221304
8.23391e-05
0.022096
6.86095e-05
0.022068
5.5377e-05
0.0220463
4.27989e-05
0.0220305
3.0926e-05
0.0220203
1.97209e-05
0.0220154
9.07274e-06
-1.19116e-06
0.0220158
0.0292369
0.000172386
0.0291816
0.000151681
0.0291336
0.000130361
0.0290931
0.000109157
0.02906
8.85581e-05
0.029034
6.88458e-05
0.0290149
5.01289e-05
0.0290023
3.23719e-05
0.028996
1.54185e-05
-9.89396e-07
0.0289958
0.0352209
0.000236286
0.0351637
0.000208857
0.0351138
0.000180274
0.0350714
0.000151593
0.0350365
0.000123535
0.0350088
9.65261e-05
0.0349883
7.07523e-05
0.0349745
4.61927e-05
0.0349673
2.26554e-05
-1.97574e-07
0.0349665
0.0401728
0.000296197
0.0401189
0.00026282
0.0400715
0.000227671
0.040031
0.000192132
0.0399974
0.000157155
0.0399706
0.00012332
0.0399505
9.08974e-05
0.0399368
5.9891e-05
0.0399294
3.00845e-05
1.07254e-06
0.0399282
0.0440972
0.000347571
0.0440507
0.000309339
0.0440096
0.000268733
0.0439744
0.000227424
0.043945
0.000186573
0.0439214
0.000146902
0.0439036
0.00010876
0.0438913
7.21828e-05
0.0438845
3.69391e-05
2.57131e-06
0.043883
0.0470009
0.000386867
0.0469651
0.00034505
0.0469335
0.000300367
0.0469063
0.000254711
0.0468834
0.000209406
0.0468651
0.000165287
0.0468511
0.000122769
0.0468414
8.19142e-05
0.0468359
4.24853e-05
3.98816e-06
0.0468345
0.0488923
0.000411559
0.0488699
0.000367511
0.0488499
0.000320296
0.0488327
0.000271936
0.0488183
0.000223856
0.0488066
0.00017696
0.0487977
0.000131704
0.0487915
8.81694e-05
0.0487879
4.61155e-05
5.0278e-06
0.0487868
0.0497809
0.000420114
0.0497731
0.000375237
0.0497663
0.000327125
0.0497604
0.000277833
0.0497555
0.000228808
0.0497515
0.000180972
0.0497484
0.000134794
0.0497462
9.03594e-05
0.0497449
4.74271e-05
5.47735e-06
0.0497444
0.0496757
0.000411985
0.0496833
0.000367709
0.04969
0.000320376
0.0496959
0.000271967
0.0497008
0.000223879
0.0497048
0.000176998
0.0497078
0.000131771
0.0497098
8.82756e-05
0.049711
4.62717e-05
5.24905e-06
0.0497112
0.0485854
0.000387616
0.0486078
0.00034539
0.0486276
0.0003005
0.0486448
0.00025476
0.0486592
0.000209444
0.0486708
0.000165355
0.0486797
0.000122893
0.0486858
8.21121e-05
0.0486893
4.27765e-05
4.39939e-06
0.0486901
0.0465172
0.000348465
0.0465529
0.000309731
0.0465845
0.000268876
0.0466117
0.000227472
0.0466345
0.000186617
0.0466529
0.000146991
0.0466668
0.000108926
0.0466764
7.24472e-05
0.0466818
3.73265e-05
3.11628e-06
0.0466831
0.0434767
0.000297048
0.0435233
0.000263169
0.0435644
0.000227782
0.0435997
0.000192163
0.0436291
0.000157195
0.0436526
0.00012342
0.0436704
9.10855e-05
0.0436826
6.01885e-05
0.0436894
3.05176e-05
1.67729e-06
0.0436908
0.0394682
0.000236952
0.0395222
0.000209106
0.0395697
0.000180337
0.0396102
0.000151606
0.0396438
0.000123573
0.0396706
9.66301e-05
0.0396907
7.09446e-05
0.0397044
4.64905e-05
0.0397118
2.30812e-05
3.89776e-07
0.039713
0.034494
0.000172799
0.0345513
0.00015181
0.0346013
0.000130374
0.0346437
0.000109157
0.0346787
8.85917e-05
0.0347063
6.89447e-05
0.0347269
5.03015e-05
0.0347408
3.2635e-05
0.034748
1.5783e-05
-4.91073e-07
0.0347489
0.0285555
0.000110144
0.0286109
9.62725e-05
0.0286589
8.22891e-05
0.0286994
6.85676e-05
0.0287325
5.53794e-05
0.0287585
4.28506e-05
0.0287777
3.10406e-05
0.0287904
1.98964e-05
0.0287968
9.3261e-06
-8.49693e-07
0.0287971
0.0216523
5.53725e-05
0.0217002
4.81133e-05
0.0217413
4.08866e-05
0.0217757
3.38772e-05
0.0218036
2.71923e-05
0.0218254
2.08974e-05
0.0218412
1.49976e-05
0.0218515
9.47218e-06
0.0218565
4.25491e-06
-7.34998e-07
0.0218563
0.0137833
1.58551e-05
0.0138174
1.36592e-05
0.0138464
1.15078e-05
0.0138705
9.45587e-06
0.0138899
7.51895e-06
0.0139048
5.71911e-06
0.0139156
4.04444e-06
0.0139224
2.49413e-06
0.0139255
1.03734e-06
-3.42062e-07
0.013925
0.00494659
0.00496021
0.00497167
0.00498109
0.00498858
0.00499427
0.00499829
0.00500076
0.00500179
0.00500143
0.00503945
-1.72855e-06
0.00504258
-3.10608e-06
0.00504712
-4.53488e-06
0.00505318
-6.06897e-06
0.00506094
-7.76813e-06
0.00507063
-9.70281e-06
0.00508256
-1.19532e-05
0.00509715
-1.46152e-05
0.00511493
-1.78015e-05
0.00513656
-2.16495e-05
0.00516286
-2.63241e-05
0.00519486
-3.203e-05
0.00523385
-3.9017e-05
0.00528143
-4.7598e-05
0.00533957
-5.81592e-05
0.00541073
-7.11859e-05
0.00549799
-8.72791e-05
0.00560517
-0.000107193
0.00573702
-0.000131853
0.00589942
-0.000162407
0.00609966
-0.000200235
0.00634666
-0.000246986
0.00665122
-0.000304541
0.00702622
-0.000374969
0.00748661
-0.000460326
0.00804905
-0.000562354
0.00873105
-0.000681875
0.00954917
-0.000817936
0.010516
-0.000966546
0.0116354
-0.00111917
0.0128971
-0.00126132
0.0142696
-0.00137196
0.0156954
-0.0014253
0.017092
-0.00139603
-0.00126968
0.0183621
0.0140324
-5.83652e-06
0.0140401
-1.08272e-05
0.0140516
-1.60218e-05
0.0140672
-2.16067e-05
0.0140872
-2.7798e-05
0.0141123
-3.48433e-05
0.0141433
-4.30331e-05
0.0141814
-5.27073e-05
0.0142278
-6.42728e-05
0.0142843
-7.8216e-05
0.0143531
-9.51294e-05
0.0144367
-0.000115733
0.0145386
-0.000140915
0.0146627
-0.000171765
0.0148142
-0.000209635
0.0149991
-0.000256191
0.0152253
-0.000313498
0.0155022
-0.000384094
0.0158414
-0.000471089
0.0162572
-0.00057825
0.016767
-0.000710079
0.0173918
-0.000871828
0.0181567
-0.00106943
0.019091
-0.00130922
0.0202281
-0.00159739
0.0216047
-0.00193888
0.0232586
-0.00233567
0.0252249
-0.00278407
0.0275298
-0.00327107
0.0301809
-0.00376976
0.0331552
-0.00423504
0.0363857
-0.00460167
0.03975
-0.00478864
0.0430699
-0.00471518
-0.00433089
0.046132
0.0220213
-1.12975e-05
0.022032
-2.15222e-05
0.0220482
-3.21899e-05
0.0220703
-4.36761e-05
0.0220989
-5.6415e-05
0.0221349
-7.09087e-05
0.0221796
-8.77439e-05
0.0222345
-0.000107611
0.0223015
-0.000131332
0.0223832
-0.000159892
0.0224825
-0.000194482
0.0226033
-0.000236551
0.0227502
-0.000287873
0.0229291
-0.00035062
0.0231469
-0.000427464
0.0234124
-0.000521687
0.0237362
-0.000637318
0.0241313
-0.000779281
0.0246137
-0.000953558
0.0252028
-0.00116733
0.0259218
-0.00142913
0.0267986
-0.00174879
0.0278665
-0.00213736
0.0291637
-0.00260657
0.0307339
-0.0031678
0.0326251
-0.00383019
0.0348868
-0.00459756
0.0375662
-0.00546363
0.0407003
-0.00640529
0.0443047
-0.00737415
0.0483572
-0.00828757
0.0527788
-0.00902304
0.0574136
-0.00942336
0.0620222
-0.00932319
-0.00860993
0.0663009
0.0290017
-1.71991e-05
0.0290139
-3.36395e-05
0.0290325
-5.08194e-05
0.0290582
-6.93315e-05
0.0290916
-8.98624e-05
0.0291339
-0.000113209
0.0291865
-0.000140303
0.0292511
-0.000172241
0.0293301
-0.000210323
0.0294263
-0.00025611
0.0295433
-0.000311481
0.0296855
-0.000378716
0.0298582
-0.00046059
0.0300681
-0.000560493
0.0303232
-0.000682572
0.0306334
-0.000831895
0.0310107
-0.00101465
0.0314698
-0.00123835
0.0320283
-0.00151209
0.0327076
-0.00184673
0.0335335
-0.00225506
0.0345365
-0.00275189
0.0357528
-0.00335378
0.0372245
-0.00407842
0.0389997
-0.00494322
0.041132
-0.00596281
0.0436788
-0.00714469
0.0466975
-0.00848256
0.0502382
-0.00994626
0.0543322
-0.0114684
0.0589727
-0.0129282
0.0640872
-0.0141376
0.0695051
-0.014841
0.0749308
-0.0147492
-0.013638
0.0799593
0.0349722
-2.28313e-05
0.0349844
-4.58278e-05
0.0350035
-6.98823e-05
0.03503
-9.58093e-05
0.0350647
-0.000124555
0.0351087
-0.000157218
0.0351635
-0.000195085
0.0352309
-0.000239666
0.0353134
-0.000292755
0.0354138
-0.000356493
0.0355358
-0.000433457
0.0356838
-0.000526758
0.0358634
-0.000640175
0.0360813
-0.000778303
0.0363455
-0.000946737
0.0366659
-0.00115229
0.0370545
-0.00140324
0.0375258
-0.0017096
0.0380972
-0.00208343
0.0387896
-0.00253913
0.0396282
-0.00309362
0.0406428
-0.00376651
0.0418688
-0.00457988
0.043348
-0.00555766
0.0451287
-0.00672405
0.0472665
-0.00810077
0.0498236
-0.00970192
0.0528667
-0.0115257
0.0564618
-0.0135416
0.0606637
-0.0156703
0.0654939
-0.0177582
0.0709046
-0.0195478
0.0767235
-0.0206593
0.0825948
-0.020618
-0.0190041
0.087962
0.0399331
-2.77152e-05
0.0399443
-5.7e-05
0.0399621
-8.76496e-05
0.039987
-0.000120684
0.0400198
-0.00015729
0.0400614
-0.00019885
0.0401133
-0.000246978
0.0401773
-0.000303569
0.0402554
-0.000370871
0.0403505
-0.000451559
0.0404659
-0.000548844
0.0406058
-0.000666593
0.0407752
-0.000809484
0.0409801
-0.000983185
0.041228
-0.00119457
0.0415278
-0.001452
0.0418902
-0.00176555
0.0423281
-0.00214742
0.042857
-0.00261225
0.0434954
-0.00317749
0.0442656
-0.00386371
0.045194
-0.00469483
0.0463122
-0.00569806
0.0476581
-0.00690343
0.0492765
-0.00834243
0.051221
-0.0100453
0.053555
-0.0120358
0.0563519
-0.0143225
0.0596932
-0.0168827
0.0636609
-0.0196377
0.0683164
-0.0224132
0.0736556
-0.0248858
0.0795266
-0.0265275
0.0855064
-0.026597
-0.0243107
0.0908154
0.0438869
-3.15766e-05
0.0438963
-6.63416e-05
0.0439114
-0.000102736
0.0439327
-0.000141953
0.0439608
-0.000185383
0.0439966
-0.000234645
0.0440413
-0.000291629
0.0440963
-0.000358554
0.0441635
-0.000438041
0.0442452
-0.000533208
0.0443442
-0.000647782
0.0444639
-0.000786244
0.0446085
-0.000953992
0.0447829
-0.00115755
0.0449932
-0.0014048
0.0452466
-0.00170529
0.0455516
-0.00207051
0.0459186
-0.00251434
0.0463599
-0.00305339
0.04689
-0.00370746
0.0475264
-0.00449999
0.04829
-0.00545833
0.0492061
-0.006614
0.0503051
-0.00800239
0.0516248
-0.00966193
0.0532115
-0.0116319
0.0551236
-0.0139477
0.057434
-0.0166327
0.0602327
-0.0196812
0.0636247
-0.0230292
0.0677149
-0.0265024
0.0725615
-0.0297315
0.0780665
-0.0320336
0.08377
-0.0323001
-0.0291168
0.0885751
0.0468372
-3.42953e-05
0.0468442
-7.32871e-05
0.0468556
-0.000114107
0.0468717
-0.000158075
0.0468931
-0.000206734
0.0469204
-0.000261877
0.0469544
-0.000325597
0.0469962
-0.000400346
0.0470472
-0.000489015
0.047109
-0.000595035
0.0471838
-0.0007225
0.0472739
-0.00087631
0.0473823
-0.00106236
0.0475126
-0.00128774
0.0476688
-0.001561
0.0478561
-0.00189245
0.0480802
-0.0022945
0.048348
-0.00278207
0.0486677
-0.00337301
0.049049
-0.0040886
0.0495031
-0.00495405
0.0500439
-0.00599898
0.0506878
-0.00725775
0.0514551
-0.0087696
0.0523716
-0.0105782
0.0534702
-0.0127304
0.054795
-0.0152723
0.0564052
-0.0182427
0.0583815
-0.0216573
0.0608318
-0.0254791
0.0638876
-0.0295586
0.0676749
-0.0335199
0.0722022
-0.0365622
0.0770496
-0.0371506
-0.0328053
0.0807336
0.0487884
-3.58478e-05
0.0487926
-7.74836e-05
0.0487996
-0.000121062
0.0488095
-0.00016798
0.0488226
-0.000219867
0.0488394
-0.000278618
0.0488603
-0.000346439
0.0488858
-0.000425912
0.0489169
-0.000520076
0.0489544
-0.000632527
0.0489995
-0.000767544
0.0490535
-0.000930236
0.0491179
-0.00112673
0.0491946
-0.00136437
0.0492856
-0.00165199
0.0493935
-0.00200022
0.0495208
-0.00242181
0.0496709
-0.00293202
0.0498471
-0.00354915
0.0500535
-0.00429493
0.0502946
-0.00519513
0.0505758
-0.00628005
0.0509031
-0.007585
0.0512842
-0.00915057
0.0517285
-0.0110225
0.0522491
-0.0132508
0.0528638
-0.015887
0.0535996
-0.0189784
0.0544976
-0.0225554
0.0556226
-0.0266045
0.0570749
-0.0310113
0.0589946
-0.0354403
0.06152
-0.0390901
0.0645124
-0.0401486
-0.0344062
0.0661079
0.0497448
-3.62537e-05
0.0497461
-7.87519e-05
0.0497483
-0.000123216
0.0497513
-0.000171061
0.0497554
-0.000223936
0.0497606
-0.000283758
0.0497669
-0.000352752
0.0497745
-0.000433521
0.0497836
-0.000529117
0.0497942
-0.000643146
0.0498066
-0.000779887
0.0498208
-0.000944434
0.049837
-0.00114288
0.0498551
-0.0013825
0.0498752
-0.00167203
0.0498969
-0.00202194
0.0499199
-0.00244475
0.0499434
-0.00295542
0.0499661
-0.0035718
0.0499862
-0.00431507
0.0500014
-0.00521023
0.050008
-0.00628661
0.0500012
-0.00757822
0.0499746
-0.00912391
0.0499192
-0.0109671
0.0498228
-0.0131544
0.0496685
-0.0157328
0.0494326
-0.0187426
0.0490818
-0.0222051
0.0485717
-0.0260951
0.0478481
-0.0302882
0.0468566
-0.0344502
0.0455618
-0.0377977
0.0440323
-0.0386206
-0.0324946
0.0421191
0.0497105
-3.55402e-05
0.0497088
-7.70578e-05
0.049706