/*--------------------------------*- C++ -*----------------------------------*\
| =========                 |                                                 |
| \\      /  F ield         | OpenFOAM: The Open Source CFD Toolbox           |
|  \\    /   O peration     | Version:  2406                                  |
|   \\  /    A nd           | Website:  www.openfoam.com                      |
|    \\/     M anipulation  |                                                 |
\*---------------------------------------------------------------------------*/
FoamFile
{
    version     2.0;
    format      ascii;
    arch        "LSB;label=32;scalar=64";
    class       volVectorField;
    location    "21";
    object      U;
}
// * * * * * * * * * * * * * * * * * * * * * * * * * * * * * * * * * * * * * //

dimensions      [0 1 -1 0 0 0 0];

internalField   nonuniform List<vector> 
1800
(
(0.513613 0.0690904 0)
(0.438638 0.0660899 0)
(0.34429 0.0333246 0)
(0.276161 0.0152329 0)
(0.241951 0.00701629 0)
(0.226971 0.00234504 0)
(0.223582 -0.00109263 0)
(0.230377 -0.00527397 0)
(0.253799 -0.0172302 0)
(0.295469 -0.0693869 0)
(0.678228 0.139412 0)
(0.692317 0.175316 0)
(0.653641 0.124964 0)
(0.606603 0.0754418 0)
(0.575437 0.0401787 0)
(0.559936 0.0157962 0)
(0.557152 -0.00303381 0)
(0.566188 -0.0223757 0)
(0.588538 -0.0511277 0)
(0.618119 -0.107591 0)
(0.681742 0.0983331 0)
(0.736277 0.153531 0)
(0.765552 0.131733 0)
(0.77393 0.0911972 0)
(0.775207 0.052667 0)
(0.776825 0.0206038 0)
(0.781734 -0.00685583 0)
(0.791027 -0.0345955 0)
(0.804224 -0.0696412 0)
(0.815058 -0.120966 0)
(0.676538 0.0500626 0)
(0.734939 0.092282 0)
(0.79572 0.0889495 0)
(0.842371 0.0654889 0)
(0.873943 0.0370178 0)
(0.894922 0.00944321 0)
(0.90932 -0.0167881 0)
(0.919492 -0.0442016 0)
(0.925619 -0.0766507 0)
(0.924167 -0.11745 0)
(0.674448 0.0140301 0)
(0.729338 0.0267747 0)
(0.799236 0.0248356 0)
(0.862097 0.0145954 0)
(0.908904 0.000805045 0)
(0.94019 -0.0145604 0)
(0.95905 -0.0315536 0)
(0.968135 -0.0514114 0)
(0.968546 -0.0756602 0)
(0.959121 -0.104889 0)
(0.674402 -0.0179867 0)
(0.728778 -0.0381864 0)
(0.797593 -0.0439877 0)
(0.858684 -0.0427893 0)
(0.902926 -0.0405253 0)
(0.930715 -0.04066 0)
(0.945006 -0.0449455 0)
(0.94843 -0.0541181 0)
(0.942395 -0.0682355 0)
(0.926858 -0.0864634 0)
(0.676398 -0.0534622 0)
(0.733321 -0.102014 0)
(0.791024 -0.10517 0)
(0.832709 -0.0892627 0)
(0.857147 -0.0705649 0)
(0.868389 -0.0564638 0)
(0.869937 -0.0493154 0)
(0.863824 -0.0489888 0)
(0.850795 -0.0543272 0)
(0.830669 -0.0636522 0)
(0.681533 -0.100689 0)
(0.733931 -0.160192 0)
(0.758809 -0.14268 0)
(0.760272 -0.107167 0)
(0.751711 -0.0753699 0)
(0.739777 -0.0530449 0)
(0.726312 -0.040224 0)
(0.711166 -0.0349887 0)
(0.693374 -0.0351475 0)
(0.67177 -0.0387016 0)
(0.678002 -0.140517 0)
(0.689973 -0.178399 0)
(0.647042 -0.129973 0)
(0.593467 -0.0827795 0)
(0.553053 -0.0508248 0)
(0.524536 -0.0315757 0)
(0.503293 -0.0212072 0)
(0.485727 -0.0165668 0)
(0.469033 -0.0154195 0)
(0.451184 -0.0162434 0)
(0.513481 -0.0692631 0)
(0.43746 -0.0665279 0)
(0.341016 -0.0339815 0)
(0.269731 -0.0161668 0)
(0.230997 -0.0083861 0)
(0.209385 -0.00449463 0)
(0.195987 -0.00257895 0)
(0.186569 -0.00177871 0)
(0.178652 -0.00155145 0)
(0.17076 -0.00159577 0)
(-0.000489229 0.000478398 0)
(-0.00244154 0.000718756 0)
(-0.00438051 0.000591164 0)
(-0.00535019 0.000285817 0)
(-0.00479954 -5.86746e-05 0)
(-0.00269154 -0.000373839 0)
(0.000747655 -0.000623555 0)
(0.00518103 -0.000795188 0)
(0.0102473 -0.000891546 0)
(0.0156109 -0.000923426 0)
(0.0209887 -0.000904659 0)
(0.0261593 -0.000849293 0)
(0.0309636 -0.000769984 0)
(0.0352982 -0.000677389 0)
(0.0391073 -0.00057981 0)
(0.0423727 -0.000483447 0)
(0.0451047 -0.000392477 0)
(0.047334 -0.000309588 0)
(0.0491042 -0.000236139 0)
(0.0504665 -0.00017267 0)
(0.0514751 -0.000119002 0)
(0.0521839 -7.46279e-05 0)
(0.0526445 -3.87179e-05 0)
(0.0529044 -1.0391e-05 0)
(0.0530062 1.13369e-05 0)
(0.0529873 2.73744e-05 0)
(0.0528796 3.86326e-05 0)
(0.0527102 4.59061e-05 0)
(0.0525012 4.99529e-05 0)
(0.0522703 5.14085e-05 0)
(0.0520315 5.08638e-05 0)
(0.0517954 4.87967e-05 0)
(0.0515696 4.56457e-05 0)
(0.0513597 4.17483e-05 0)
(0.0511691 3.74119e-05 0)
(-0.000824999 0.00249288 0)
(-0.00429372 0.0038501 0)
(-0.0070043 0.00269439 0)
(-0.00723958 0.000151033 0)
(-0.00407922 -0.00281457 0)
(0.00245488 -0.00557986 0)
(0.0118428 -0.00780796 0)
(0.0233432 -0.00936775 0)
(0.0361686 -0.0102593 0)
(0.0495884 -0.0105565 0)
(0.0629824 -0.0103681 0)
(0.0758624 -0.00981241 0)
(0.0878715 -0.00900215 0)
(0.098773 -0.00803622 0)
(0.108433 -0.0069965 0)
(0.1168 -0.00594687 0)
(0.123889 -0.00493466 0)
(0.12976 -0.00399248 0)
(0.134506 -0.00314081 0)
(0.138241 -0.00239037 0)
(0.141086 -0.00174444 0)
(0.143167 -0.00120091 0)
(0.144604 -0.000753843 0)
(0.145512 -0.000394988 0)
(0.145994 -0.000114716 0)
(0.146144 9.70982e-05 0)
(0.146042 0.000250547 0)
(0.145756 0.000355259 0)
(0.145346 0.000420137 0)
(0.144857 0.000453212 0)
(0.144328 0.000461543 0)
(0.143788 0.000451248 0)
(0.14326 0.000427468 0)
(0.14276 0.0003945 0)
(0.142298 0.00035577 0)
(-0.000911513 0.00501012 0)
(-0.00432345 0.00699378 0)
(-0.00568376 0.00357899 0)
(-0.00317116 -0.00264205 0)
(0.00400355 -0.00961453 0)
(0.015541 -0.0160041 0)
(0.0306141 -0.0210926 0)
(0.048191 -0.0246082 0)
(0.0672343 -0.0265652 0)
(0.0868107 -0.02714 0)
(0.106143 -0.0265841 0)
(0.124626 -0.025169 0)
(0.14182 -0.0231528 0)
(0.157436 -0.0207631 0)
(0.171311 -0.0181896 0)
(0.183385 -0.0155822 0)
(0.193682 -0.0130537 0)
(0.202281 -0.0106838 0)
(0.209306 -0.00852452 0)
(0.214907 -0.00660489 0)
(0.219246 -0.00493637 0)
(0.222492 -0.0035171 0)
(0.224809 -0.00233568 0)
(0.226353 -0.00137435 0)
(0.227268 -0.000611494 0)
(0.227683 -2.35931e-05 0)
(0.227714 0.000413304 0)
(0.227458 0.000722492 0)
(0.227 0.000925909 0)
(0.226408 0.0010436 0)
(0.225738 0.0010935 0)
(0.225035 0.00109128 0)
(0.224333 0.0010504 0)
(0.223657 0.000982118 0)
(0.223026 0.000895692 0)
(-0.000928654 0.0073882 0)
(-0.00322021 0.00879141 0)
(-0.00159306 0.00162382 0)
(0.00543721 -0.00959101 0)
(0.0180448 -0.0215202 0)
(0.035384 -0.0321062 0)
(0.0562363 -0.0403085 0)
(0.0793267 -0.04579 0)
(0.103489 -0.0486486 0)
(0.127737 -0.049218 0)
(0.151287 -0.0479338 0)
(0.173549 -0.0452499 0)
(0.194112 -0.0415917 0)
(0.212715 -0.0373316 0)
(0.229222 -0.0327793 0)
(0.243603 -0.0281806 0)
(0.255902 -0.0237212 0)
(0.266224 -0.0195342 0)
(0.274715 -0.0157071 0)
(0.281546 -0.0122908 0)
(0.286901 -0.00930661 0)
(0.290972 -0.00675357 0)
(0.293943 -0.00461443 0)
(0.295992 -0.00286064 0)
(0.297285 -0.00145662 0)
(0.297969 -0.000362957 0)
(0.298178 0.000460983 0)
(0.298027 0.00105521 0)
(0.297614 0.00145773 0)
(0.297023 0.00170364 0)
(0.296322 0.00182457 0)
(0.295563 0.00184839 0)
(0.294791 0.00179917 0)
(0.294036 0.00169727 0)
(0.293322 0.00155947 0)
(-0.00092845 0.00908156 0)
(-0.00107911 0.00784671 0)
(0.00534961 -0.0049698 0)
(0.0188631 -0.0223403 0)
(0.0384472 -0.0396298 0)
(0.0624461 -0.0542601 0)
(0.0892067 -0.0650978 0)
(0.117292 -0.071922 0)
(0.145543 -0.0750338 0)
(0.173069 -0.0749912 0)
(0.199219 -0.0724434 0)
(0.223539 -0.0680342 0)
(0.24574 -0.062351 0)
(0.265663 -0.0559001 0)
(0.283254 -0.0490993 0)
(0.298539 -0.0422787 0)
(0.311609 -0.0356883 0)
(0.322598 -0.0295071 0)
(0.331672 -0.0238537 0)
(0.339013 -0.0187972 0)
(0.344817 -0.0143672 0)
(0.349277 -0.0105624 0)
(0.352585 -0.00735938 0)
(0.35492 -0.00471853 0)
(0.356451 -0.0025901 0)
(0.35733 -0.000918541 0)
(0.357695 0.00035389 0)
(0.357665 0.00128447 0)
(0.357344 0.00192803 0)
(0.356817 0.00233555 0)
(0.356158 0.00255329 0)
(0.355424 0.00262231 0)
(0.354662 0.00257829 0)
(0.353906 0.00245155 0)
(0.353184 0.00226734 0)
(-0.000789315 0.00958644 0)
(0.00284247 0.00253519 0)
(0.0166491 -0.0183286 0)
(0.0390884 -0.0427778 0)
(0.0672544 -0.0651703 0)
(0.0985479 -0.0829149 0)
(0.131007 -0.0951926 0)
(0.163233 -0.102159 0)
(0.194271 -0.104455 0)
(0.223496 -0.102922 0)
(0.250524 -0.0984302 0)
(0.275138 -0.0917944 0)
(0.297245 -0.0837355 0)
(0.316844 -0.0748624 0)
(0.333995 -0.0656709 0)
(0.34881 -0.0565501 0)
(0.361434 -0.0477926 0)
(0.372034 -0.0396072 0)
(0.380792 -0.0321314 0)
(0.387899 -0.0254442 0)
(0.393544 -0.0195777 0)
(0.397914 -0.0145276 0)
(0.401189 -0.0102625 0)
(0.403537 -0.00673169 0)
(0.405116 -0.00387162 0)
(0.406067 -0.00161149 0)
(0.406518 0.000122572 0)
(0.406582 0.00140411 0)
(0.406356 0.00230384 0)
(0.405923 0.00288792 0)
(0.405351 0.00321666 0)
(0.404696 0.00334391 0)
(0.404005 0.0033167 0)
(0.403311 0.00317526 0)
(0.402641 0.00295325 0)
(-0.000153422 0.00822285 0)
(0.0107128 -0.00967469 0)
(0.0359309 -0.0413874 0)
(0.0702142 -0.0730449 0)
(0.108198 -0.0991448 0)
(0.146631 -0.118047 0)
(0.183711 -0.129798 0)
(0.218461 -0.13519 0)
(0.2504 -0.135299 0)
(0.279342 -0.131246 0)
(0.305278 -0.124088 0)
(0.328298 -0.114759 0)
(0.348546 -0.10406 0)
(0.366197 -0.0926529 0)
(0.381441 -0.0810694 0)
(0.394478 -0.0697217 0)
(0.405506 -0.0589169 0)
(0.414722 -0.0488713 0)
(0.422318 -0.0397248 0)
(0.428479 -0.0315547 0)
(0.43338 -0.0243881 0)
(0.437187 -0.018213 0)
(0.440057 -0.012988 0)
(0.442134 -0.00865078 0)
(0.443551 -0.00512495 0)
(0.444427 -0.00232602 0)
(0.44487 -0.000166072 0)
(0.444975 0.00144252 0)
(0.444824 0.00258421 0)
(0.444488 0.00333824 0)
(0.444026 0.0037772 0)
(0.443487 0.00396616 0)
(0.442909 0.00396221 0)
(0.442324 0.00381441 0)
(0.441754 0.00356399 0)
(0.00194938 0.00245544 0)
(0.0278275 -0.0341322 0)
(0.0704157 -0.0785048 0)
(0.119126 -0.115195 0)
(0.16658 -0.141641 0)
(0.2102 -0.158471 0)
(0.249281 -0.167039 0)
(0.283778 -0.168843 0)
(0.313931 -0.165328 0)
(0.340107 -0.157796 0)
(0.362712 -0.147384 0)
(0.382143 -0.13506 0)
(0.39877 -0.121633 0)
(0.412927 -0.107758 0)
(0.424916 -0.0939533 0)
(0.435003 -0.0806172 0)
(0.443426 -0.0680404 0)
(0.450396 -0.0564239 0)
(0.456098 -0.0458928 0)
(0.4607 -0.0365106 0)
(0.464351 -0.0282913 0)
(0.467185 -0.0212105 0)
(0.469322 -0.015215 0)
(0.470872 -0.0102305 0)
(0.471934 -0.00616941 0)
(0.472595 -0.00293567 0)
(0.472934 -0.000430175 0)
(0.47302 0.00144568 0)
(0.472914 0.00278693 0)
(0.472667 0.00368293 0)
(0.472323 0.00421573 0)
(0.471918 0.00445914 0)
(0.471483 0.00447813 0)
(0.47104 0.00432876 0)
(0.470607 0.0040583 0)
(0.014592 -0.0240729 0)
(0.0688285 -0.0843736 0)
(0.134175 -0.135463 0)
(0.195941 -0.169617 0)
(0.248356 -0.19034 0)
(0.292042 -0.200837 0)
(0.328376 -0.203401 0)
(0.358515 -0.199828 0)
(0.383437 -0.191611 0)
(0.403986 -0.180017 0)
(0.420892 -0.166119 0)
(0.434774 -0.150815 0)
(0.446153 -0.134843 0)
(0.455463 -0.118799 0)
(0.463067 -0.103147 0)
(0.469262 -0.0882351 0)
(0.474291 -0.0743133 0)
(0.478356 -0.0615476 0)
(0.481616 -0.050034 0)
(0.484206 -0.0398123 0)
(0.486235 -0.0308772 0)
(0.487792 -0.0231887 0)
(0.488955 -0.0166802 0)
(0.489789 -0.011267 0)
(0.49035 -0.00685166 0)
(0.490689 -0.00332982 0)
(0.490848 -0.000594652 0)
(0.490866 0.00145967 0)
(0.490776 0.00293495 0)
(0.490607 0.00392694 0)
(0.490383 0.00452372 0)
(0.490125 0.00480466 0)
(0.48985 0.00483984 0)
(0.489571 0.00468987 0)
(0.489299 0.00440604 0)
(0.0949204 -0.0974814 0)
(0.177596 -0.171102 0)
(0.251847 -0.208724 0)
(0.311689 -0.228541 0)
(0.356951 -0.237388 0)
(0.391659 -0.238429 0)
(0.418582 -0.233463 0)
(0.439419 -0.223847 0)
(0.455395 -0.210757 0)
(0.467499 -0.195229 0)
(0.476549 -0.178162 0)
(0.48322 -0.160317 0)
(0.488064 -0.142321 0)
(0.491526 -0.124672 0)
(0.493961 -0.107753 0)
(0.495647 -0.0918444 0)
(0.496796 -0.0771379 0)
(0.497568 -0.0637526 0)
(0.498078 -0.0517472 0)
(0.498408 -0.0411322 0)
(0.498615 -0.0318799 0)
(0.498737 -0.0239333 0)
(0.4988 -0.017214 0)
(0.498819 -0.011628 0)
(0.498805 -0.00707148 0)
(0.498766 -0.00343533 0)
(0.498707 -0.000608984 0)
(0.498631 0.00151634 0)
(0.498543 0.00304501 0)
(0.498447 0.00407511 0)
(0.498344 0.00469688 0)
(0.49824 0.00499175 0)
(0.498136 0.00503175 0)
(0.498035 0.00487928 0)
(0.497939 0.00458728 0)
(0.391432 -0.202063 0)
(0.410164 -0.244699 0)
(0.435962 -0.262523 0)
(0.463423 -0.269363 0)
(0.485239 -0.268585 0)
(0.501262 -0.262023 0)
(0.51251 -0.250981 0)
(0.519803 -0.236528 0)
(0.523884 -0.219625 0)
(0.525461 -0.201139 0)
(0.525184 -0.181825 0)
(0.523611 -0.162322 0)
(0.521204 -0.143145 0)
(0.518332 -0.124695 0)
(0.515279 -0.107269 0)
(0.512254 -0.0910723 0)
(0.5094 -0.0762368 0)
(0.50681 -0.0628314 0)
(0.504534 -0.0508759 0)
(0.50259 -0.040351 0)
(0.500973 -0.0312075 0)
(0.499664 -0.0233739 0)
(0.498632 -0.0167618 0)
(0.497844 -0.0112721 0)
(0.497261 -0.0067981 0)
(0.49685 -0.00323026 0)
(0.496577 -0.000458696 0)
(0.496413 0.00162392 0)
(0.496332 0.00312016 0)
(0.496313 0.00412625 0)
(0.496338 0.00473071 0)
(0.496393 0.00501343 0)
(0.496466 0.00504513 0)
(0.496548 0.00488718 0)
(0.496634 0.00459169 0)
(0.637077 -0.199802 0)
(0.625697 -0.250074 0)
(0.61688 -0.271611 0)
(0.612985 -0.278134 0)
(0.609292 -0.275243 0)
(0.604288 -0.265893 0)
(0.597839 -0.252069 0)
(0.590045 -0.235196 0)
(0.581154 -0.216378 0)
(0.571527 -0.196505 0)
(0.561557 -0.176298 0)
(0.551608 -0.15633 0)
(0.541988 -0.137038 0)
(0.532933 -0.118746 0)
(0.524613 -0.101674 0)
(0.517134 -0.0859658 0)
(0.510547 -0.0716951 0)
(0.504859 -0.0588872 0)
(0.500042 -0.0475272 0)
(0.496045 -0.0375711 0)
(0.492797 -0.0289529 0)
(0.49022 -0.0215904 0)
(0.488229 -0.0153908 0)
(0.486741 -0.0102536 0)
(0.485675 -0.00607451 0)
(0.484958 -0.00274776 0)
(0.48452 -0.000168743 0)
(0.484302 0.00176404 0)
(0.484253 0.00314718 0)
(0.484327 0.00407111 0)
(0.484488 0.00461889 0)
(0.484706 0.00486549 0)
(0.484956 0.00487729 0)
(0.48522 0.00471189 0)
(0.485484 0.00441826 0)
(0.809753 -0.185423 0)
(0.785176 -0.229972 0)
(0.757221 -0.25317 0)
(0.731529 -0.26158 0)
(0.707418 -0.259716 0)
(0.684226 -0.250675 0)
(0.661804 -0.236798 0)
(0.640118 -0.219834 0)
(0.61923 -0.201081 0)
(0.599292 -0.181522 0)
(0.580499 -0.161896 0)
(0.563034 -0.142747 0)
(0.547042 -0.124467 0)
(0.532616 -0.107319 0)
(0.519796 -0.0914692 0)
(0.508572 -0.0770061 0)
(0.498895 -0.0639619 0)
(0.490681 -0.052327 0)
(0.483825 -0.0420614 0)
(0.478205 -0.0331042 0)
(0.473688 -0.0253794 0)
(0.470142 -0.0188015 0)
(0.467435 -0.0132781 0)
(0.465441 -0.00871324 0)
(0.464042 -0.00500945 0)
(0.463131 -0.00206958 0)
(0.462611 0.000201583 0)
(0.462398 0.00189566 0)
(0.462416 0.0030996 0)
(0.462604 0.00389449 0)
(0.46291 0.00435478 0)
(0.463291 0.00454755 0)
(0.463712 0.00453221 0)
(0.464147 0.00436029 0)
(0.464576 0.00407561 0)
(0.908254 -0.163022 0)
(0.87752 -0.198464 0)
(0.840329 -0.219581 0)
(0.802156 -0.228481 0)
(0.764679 -0.227917 0)
(0.72853 -0.220375 0)
(0.694123 -0.208026 0)
(0.661704 -0.192631 0)
(0.631424 -0.175541 0)
(0.603405 -0.157764 0)
(0.577747 -0.140035 0)
(0.554509 -0.122871 0)
(0.533705 -0.10662 0)
(0.515301 -0.0914995 0)
(0.499218 -0.0776313 0)
(0.48534 -0.065066 0)
(0.473523 -0.0538056 0)
(0.463604 -0.0438181 0)
(0.455406 -0.0350495 0)
(0.448748 -0.0274315 0)
(0.443448 -0.0208867 0)
(0.439329 -0.0153327 0)
(0.436223 -0.0106842 0)
(0.433971 -0.00685475 0)
(0.432429 -0.00375836 0)
(0.431464 -0.0013104 0)
(0.430961 0.000571192 0)
(0.430817 0.00196502 0)
(0.430943 0.00294529 0)
(0.431265 0.00358111 0)
(0.431718 0.00393573 0)
(0.432254 0.00406615 0)
(0.43283 0.00402274 0)
(0.433415 0.00384925 0)
(0.433984 0.00358274 0)
(0.937198 -0.136153 0)
(0.903277 -0.16194 0)
(0.86211 -0.178576 0)
(0.818029 -0.186189 0)
(0.773498 -0.186168 0)
(0.729973 -0.180215 0)
(0.688416 -0.170042 0)
(0.649425 -0.15716 0)
(0.613347 -0.142788 0)
(0.580369 -0.127847 0)
(0.55057 -0.113001 0)
(0.523941 -0.0987087 0)
(0.500406 -0.0852624 0)
(0.479836 -0.072835 0)
(0.462059 -0.0615109 0)
(0.446876 -0.0513142 0)
(0.434071 -0.0422285 0)
(0.423419 -0.0342114 0)
(0.414693 -0.0272056 0)
(0.40767 -0.0211446 0)
(0.402134 -0.0159577 0)
(0.397882 -0.011572 0)
(0.394721 -0.00791466 0)
(0.392477 -0.00491318 0)
(0.390989 -0.00249671 0)
(0.390113 -0.000596155 0)
(0.389723 0.000854794 0)
(0.389707 0.00191947 0)
(0.38997 0.00265734 0)
(0.39043 0.00312373 0)
(0.391022 0.00336911 0)
(0.39169 0.00343898 0)
(0.392391 0.00337344 0)
(0.393091 0.00320733 0)
(0.393765 0.00297005 0)
(0.901054 -0.106243 0)
(0.865721 -0.123241 0)
(0.82376 -0.134709 0)
(0.778348 -0.14009 0)
(0.731892 -0.139962 0)
(0.686121 -0.135376 0)
(0.64227 -0.127538 0)
(0.601161 -0.117591 0)
(0.563285 -0.106496 0)
(0.528895 -0.0949911 0)
(0.49807 -0.0836095 0)
(0.470767 -0.0727104 0)
(0.446853 -0.0625176 0)
(0.426137 -0.0531546 0)
(0.40839 -0.0446739 0)
(0.393361 -0.0370811 0)
(0.380792 -0.0303513 0)
(0.370425 -0.0244421 0)
(0.362008 -0.0193013 0)
(0.355299 -0.0148723 0)
(0.350071 -0.0110968 0)
(0.346111 -0.00791699 0)
(0.343223 -0.00527581 0)
(0.34123 -0.00311802 0)
(0.33997 -0.00138972 0)
(0.339299 -3.94176e-05 0)
(0.339092 0.000982545 0)
(0.339238 0.00172289 0)
(0.339643 0.00222584 0)
(0.340228 0.00253197 0)
(0.340927 0.0026787 0)
(0.341687 0.00269927 0)
(0.342467 0.00262338 0)
(0.343233 0.00247632 0)
(0.343961 0.00227988 0)
(0.803028 -0.0746515 0)
(0.768364 -0.0845224 0)
(0.728442 -0.09133 0)
(0.685487 -0.0944234 0)
(0.641506 -0.093987 0)
(0.598123 -0.0906217 0)
(0.556569 -0.0850954 0)
(0.517696 -0.0781724 0)
(0.482027 -0.0705095 0)
(0.44982 -0.0626168 0)
(0.421141 -0.0548596 0)
(0.395923 -0.04748 0)
(0.374001 -0.0406235 0)
(0.355156 -0.034365 0)
(0.339138 -0.0287304 0)
(0.32568 -0.023714 0)
(0.314517 -0.0192909 0)
(0.30539 -0.0154255 0)
(0.29805 -0.0120778 0)
(0.292265 -0.00920552 0)
(0.287818 -0.00676715 0)
(0.284511 -0.00472195 0)
(0.282161 -0.00303095 0)
(0.280603 -0.00165648 0)
(0.279691 -0.000562665 0)
(0.279294 0.000285018 0)
(0.279296 0.000919212 0)
(0.279598 0.00137103 0)
(0.280117 0.00166936 0)
(0.28078 0.00184112 0)
(0.28153 0.00191066 0)
(0.28232 0.00190002 0)
(0.283112 0.00182839 0)
(0.283878 0.0017126 0)
(0.284598 0.00156657 0)
(0.64552 -0.0437589 0)
(0.61465 -0.0485348 0)
(0.580143 -0.0518227 0)
(0.54348 -0.0531556 0)
(0.506172 -0.0525806 0)
(0.469531 -0.0504144 0)
(0.434584 -0.0470832 0)
(0.402049 -0.0430173 0)
(0.372362 -0.0385867 0)
(0.345724 -0.0340766 0)
(0.322167 -0.0296879 0)
(0.301597 -0.0255496 0)
(0.283848 -0.0217356 0)
(0.268706 -0.0182796 0)
(0.255933 -0.015189 0)
(0.245289 -0.0124541 0)
(0.236536 -0.010056 0)
(0.229448 -0.00797067 0)
(0.223811 -0.00617297 0)
(0.219428 -0.00463739 0)
(0.216117 -0.00333954 0)
(0.213715 -0.00225601 0)
(0.212069 -0.00136485 0)
(0.211046 -0.000645021 0)
(0.210526 -7.67395e-05 0)
(0.210402 0.000358991 0)
(0.210582 0.000680028 0)
(0.210986 0.000903392 0)
(0.211546 0.00104482 0)
(0.212206 0.00111902 0)
(0.21292 0.00113922 0)
(0.21365 0.00111744 0)
(0.214368 0.0010641 0)
(0.215053 0.000988321 0)
(0.215689 0.000897622 0)
(0.431006 -0.0179183 0)
(0.408222 -0.0195693 0)
(0.383323 -0.0206524 0)
(0.357225 -0.0209667 0)
(0.330925 -0.0205396 0)
(0.30531 -0.0195093 0)
(0.281073 -0.0180542 0)
(0.258686 -0.0163484 0)
(0.238419 -0.0145373 0)
(0.220379 -0.0127292 0)
(0.204553 -0.0109973 0)
(0.190846 -0.00938601 0)
(0.179114 -0.00791798 0)
(0.169187 -0.00660136 0)
(0.160884 -0.00543431 0)
(0.154028 -0.00440989 0)
(0.148446 -0.00351787 0)
(0.143977 -0.00274748 0)
(0.140471 -0.00208742 0)
(0.137793 -0.00152735 0)
(0.135818 -0.00105712 0)
(0.134434 -0.000667751 0)
(0.13354 -0.000350386 0)
(0.133045 -9.71521e-05 0)
(0.132868 9.98165e-05 0)
(0.132941 0.000247571 0)
(0.133199 0.000353198 0)
(0.133593 0.000422977 0)
(0.134075 0.000463146 0)
(0.13461 0.000479079 0)
(0.135168 0.00047602 0)
(0.135725 0.000458282 0)
(0.136263 0.000429991 0)
(0.136768 0.00039432 0)
(0.137232 0.000354251 0)
(0.162146 -0.00173954 0)
(0.152608 -0.00186916 0)
(0.142331 -0.0019262 0)
(0.131696 -0.00190006 0)
(0.121114 -0.00180416 0)
(0.110939 -0.0016593 0)
(0.101433 -0.00148645 0)
(0.0927612 -0.00130352 0)
(0.0850065 -0.00112351 0)
(0.0781853 -0.000954635 0)
(0.0722698 -0.000801219 0)
(0.0672037 -0.00066495 0)
(0.0629157 -0.000545815 0)
(0.0593281 -0.000442832 0)
(0.0563631 -0.000354507 0)
(0.0539457 -0.000279171 0)
(0.052006 -0.000215176 0)
(0.05048 -0.000161011 0)
(0.0493092 -0.000115361 0)
(0.048441 -7.7098e-05 0)
(0.0478278 -4.52881e-05 0)
(0.047427 -1.91351e-05 0)
(0.0472002 2.02323e-06 0)
(0.0471136 1.87748e-05 0)
(0.047137 3.16288e-05 0)
(0.0472441 4.1066e-05 0)
(0.0474121 4.75194e-05 0)
(0.0476216 5.1412e-05 0)
(0.0478565 5.31305e-05 0)
(0.0481033 5.30558e-05 0)
(0.0483514 5.1532e-05 0)
(0.0485926 4.889e-05 0)
(0.0488208 4.54189e-05 0)
(0.0490317 4.13852e-05 0)
(0.0492225 3.70103e-05 0)
(0.0509996 3.28541e-05 0)
(0.0508521 2.82748e-05 0)
(0.0507265 2.37931e-05 0)
(0.050622 1.95233e-05 0)
(0.0505376 1.5508e-05 0)
(0.050472 1.17973e-05 0)
(0.0504237 8.37735e-06 0)
(0.0503917 5.25225e-06 0)
(0.0503746 2.36826e-06 0)
(0.0503718 -3.02377e-07 0)
(0.141882 0.000314031 0)
(0.141515 0.000271321 0)
(0.141199 0.000229181 0)
(0.140933 0.0001886 0)
(0.140716 0.000150237 0)
(0.140545 0.000114338 0)
(0.140418 8.09516e-05 0)
(0.140331 4.98229e-05 0)
(0.140282 2.05919e-05 0)
(0.140271 -7.3332e-06 0)
(0.22245 0.000798503 0)
(0.221939 0.000696301 0)
(0.221494 0.000593341 0)
(0.221116 0.000492645 0)
(0.220805 0.000396127 0)
(0.220557 0.000304829 0)
(0.22037 0.000219009 0)
(0.220241 0.000138334 0)
(0.220166 6.19284e-05 0)
(0.220144 -1.14857e-05 0)
(0.292665 0.00139934 0)
(0.292075 0.00122747 0)
(0.291558 0.00105186 0)
(0.291116 0.000878204 0)
(0.290748 0.000710288 0)
(0.290453 0.00055022 0)
(0.290228 0.00039875 0)
(0.29007 0.000255469 0)
(0.289976 0.000119029 0)
(0.289944 -1.27364e-05 0)
(0.352513 0.00204615 0)
(0.351906 0.00180412 0)
(0.35137 0.00155354 0)
(0.350908 0.00130334 0)
(0.350521 0.00105949 0)
(0.350209 0.00082551 0)
(0.349969 0.000602828 0)
(0.349797 0.000391131 0)
(0.349693 0.000188649 0)
(0.349653 -7.62378e-06 0)
(0.402014 0.00267813 0)
(0.401443 0.00237173 0)
(0.400935 0.00205078 0)
(0.400495 0.00172753 0)
(0.400125 0.00141035 0)
(0.399823 0.00110429 0)
(0.39959 0.000811628 0)
(0.399421 0.00053225 0)
(0.399316 0.000264091 0)
(0.399273 3.3974e-06 0)
(0.441218 0.00324478 0)
(0.440727 0.00288382 0)
(0.440288 0.00250195 0)
(0.439906 0.00211458 0)
(0.439582 0.00173235 0)
(0.439318 0.00136184 0)
(0.439111 0.00100616 0)
(0.438961 0.000665517 0)
(0.438866 0.000337647 0)
(0.438825 1.81992e-05 0)
(0.470197 0.00370574 0)
(0.469821 0.00330232 0)
(0.469483 0.00287228 0)
(0.469188 0.00243366 0)
(0.468938 0.00199902 0)
(0.468732 0.00157625 0)
(0.46857 0.00116922 0)
(0.468452 0.000778431 0)
(0.468376 0.000401539 0)
(0.468342 3.37434e-05 0)
(0.489042 0.00403076 0)
(0.488805 0.00359814 0)
(0.488592 0.00313478 0)
(0.488407 0.00266049 0)
(0.488248 0.00218922 0)
(0.488118 0.00172977 0)
(0.488015 0.00128658 0)
(0.487939 0.0008604 0)
(0.48789 0.000448837 0)
(0.487867 4.6815e-05 0)
(0.497849 0.0041996 0)
(0.497768 0.00375162 0)
(0.497695 0.00327096 0)
(0.497631 0.0027783 0)
(0.497577 0.00228818 0)
(0.497532 0.00180987 0)
(0.497497 0.00134809 0)
(0.497471 0.000903706 0)
(0.497453 0.000474317 0)
(0.497444 5.47204e-05 0)
(0.496718 0.00420189 0)
(0.496797 0.0037527 0)
(0.496868 0.00327141 0)
(0.496932 0.00277847 0)
(0.496986 0.0022883 0)
(0.49703 0.00181006 0)
(0.497065 0.00134843 0)
(0.49709 0.000904253 0)
(0.497106 0.000475125 0)
(0.497113 5.5864e-05 0)
(0.485737 0.00403704 0)
(0.485972 0.00360105 0)
(0.486183 0.00313595 0)
(0.486369 0.00266094 0)
(0.486527 0.00218955 0)
(0.486657 0.00173032 0)
(0.486759 0.00128756 0)
(0.486834 0.000861965 0)
(0.486882 0.000451146 0)
(0.486904 5.00824e-05 0)
(0.464984 0.00371448 0)
(0.46536 0.00330625 0)
(0.465697 0.00287378 0)
(0.465992 0.0024342 0)
(0.466242 0.00199945 0)
(0.466448 0.00157706 0)
(0.466609 0.0011707 0)
(0.466727 0.000780809 0)
(0.466802 0.000405028 0)
(0.466835 3.86794e-05 0)
(0.434521 0.003254 0)
(0.435013 0.00288775 0)
(0.435452 0.00250331 0)
(0.435835 0.00211499 0)
(0.436158 0.00173278 0)
(0.436423 0.00136279 0)
(0.436629 0.00100797 0)
(0.436779 0.000668391 0)
(0.436873 0.000341867 0)
(0.436914 2.41166e-05 0)
(0.394395 0.00268606 0)
(0.394968 0.00237486 0)
(0.395476 0.00205171 0)
(0.395917 0.00172776 0)
(0.396287 0.00141076 0)
(0.396589 0.00110534 0)
(0.396823 0.000813593 0)
(0.396991 0.000535316 0)
(0.397096 0.000268528 0)
(0.397139 9.54583e-06 0)
(0.344635 0.00205166 0)
(0.345244 0.00180609 0)
(0.345781 0.00155394 0)
(0.346243 0.00130346 0)
(0.34663 0.00105989 0)
(0.346943 0.00082662 0)
(0.347183 0.000604737 0)
(0.347355 0.000394083 0)
(0.34746 0.000192745 0)
(0.3475 -1.9747e-06 0)
(0.285258 0.001402 0)
(0.28585 0.00122796 0)
(0.286367 0.00105163 0)
(0.28681 0.000877961 0)
(0.287177 0.000710491 0)
(0.287472 0.000550994 0)
(0.287697 0.00040025 0)
(0.287856 0.000257714 0)
(0.287951 0.000122211 0)
(0.287984 -8.45512e-06 0)
(0.216266 0.000798301 0)
(0.216778 0.000695198 0)
(0.217223 0.00059212 0)
(0.217601 0.000491649 0)
(0.217912 0.000395586 0)
(0.21816 0.000304768 0)
(0.218347 0.000219501 0)
(0.218477 0.00013936 0)
(0.218553 6.35961e-05 0)
(0.218576 -9.09917e-06 0)
(0.137648 0.000311859 0)
(0.138015 0.000269082 0)
(0.138331 0.000227037 0)
(0.138596 0.0001868 0)
(0.138813 0.000148734 0)
(0.138984 0.000113259 0)
(0.139112 8.01904e-05 0)
(0.139199 4.94885e-05 0)
(0.139248 2.05905e-05 0)
(0.139261 -6.85619e-06 0)
(0.0493917 3.24878e-05 0)
(0.0495388 2.79669e-05 0)
(0.0496641 2.35689e-05 0)
(0.0497683 1.93756e-05 0)
(0.0498525 1.54446e-05 0)
(0.0499181 1.18016e-05 0)
(0.0499664 8.45347e-06 0)
(0.0499987 5.38336e-06 0)
(0.050016 2.56165e-06 0)
(0.0500193 -5.86212e-08 0)
(0.0503826 -2.84164e-06 0)
(0.0504069 -5.30017e-06 0)
(0.050445 -7.78189e-06 0)
(0.0504977 -1.0358e-05 0)
(0.0505664 -1.31559e-05 0)
(0.0506529 -1.62727e-05 0)
(0.0507602 -1.98682e-05 0)
(0.0508917 -2.40793e-05 0)
(0.0510522 -2.91183e-05 0)
(0.0512475 -3.51888e-05 0)
(0.0514849 -4.25908e-05 0)
(0.0517738 -5.16405e-05 0)
(0.0521254 -6.27856e-05 0)
(0.0525542 -7.65335e-05 0)
(0.0530776 -9.358e-05 0)
(0.0537178 -0.000114754 0)
(0.0545021 -0.000141167 0)
(0.0554646 -0.00017418 0)
(0.0566476 -0.000215576 0)
(0.0581041 -0.000267562 0)
(0.0598992 -0.000332942 0)
(0.0621136 -0.000415111 0)
(0.0648453 -0.000518162 0)
(0.0682128 -0.000646711 0)
(0.0723556 -0.00080567 0)
(0.0774331 -0.000999465 0)
(0.0836192 -0.00123087 0)
(0.0910893 -0.0014988 0)
(0.0999969 -0.0017954 0)
(0.110436 -0.00210204 0)
(0.122387 -0.00238589 0)
(0.135651 -0.00259827 0)
(0.14979 -0.00267935 0)
(0.164093 -0.00257191 0)
(0.177626 -0.00224732 0)
(0.140295 -3.45979e-05 0)
(0.140354 -6.20476e-05 0)
(0.14045 -9.05698e-05 0)
(0.140584 -0.00012126 0)
(0.14076 -0.000155287 0)
(0.140984 -0.00019408 0)
(0.141263 -0.000239216 0)
(0.141605 -0.000292638 0)
(0.142024 -0.000356573 0)
(0.142534 -0.000433792 0)
(0.143155 -0.00052757 0)
(0.14391 -0.000642013 0)
(0.144828 -0.000782087 0)
(0.145947 -0.000954038 0)
(0.147312 -0.00116552 0)
(0.148977 -0.00142617 0)
(0.151013 -0.00174786 0)
(0.153503 -0.00214541 0)
(0.156553 -0.00263701 0)
(0.16029 -0.003245 0)
(0.164873 -0.00399615 0)
(0.170492 -0.00492217 0)
(0.177377 -0.00605898 0)
(0.185799 -0.00744556 0)
(0.196074 -0.00912004 0)
(0.208554 -0.0111136 0)
(0.223621 -0.0134389 0)
(0.241649 -0.0160738 0)
(0.262962 -0.0189377 0)
(0.287754 -0.0218638 0)
(0.315979 -0.0245736 0)
(0.347216 -0.026668 0)
(0.380536 -0.02766 0)
(0.414419 -0.0270788 0)
(0.446835 -0.0246546 0)
(0.220173 -8.35933e-05 0)
(0.220254 -0.000156391 0)
(0.220387 -0.000232247 0)
(0.220577 -0.000313858 0)
(0.220829 -0.000404361 0)
(0.221149 -0.00050735 0)
(0.22155 -0.000627052 0)
(0.222044 -0.000768406 0)
(0.222648 -0.000937331 0)
(0.223385 -0.00114089 0)
(0.224281 -0.00138769 0)
(0.225372 -0.00168818 0)
(0.226698 -0.0020552 0)
(0.228311 -0.00250451 0)
(0.230275 -0.00305559 0)
(0.232669 -0.00373242 0)
(0.235586 -0.00456461 0)
(0.239147 -0.00558842 0)
(0.243492 -0.00684816 0)
(0.248798 -0.00839724 0)
(0.255277 -0.0102993 0)
(0.263184 -0.012628 0)
(0.272822 -0.0154664 0)
(0.284549 -0.0189026 0)
(0.298776 -0.0230217 0)
(0.315966 -0.0278911 0)
(0.336613 -0.0335364 0)
(0.361214 -0.0399038 0)
(0.390213 -0.04681 0)
(0.423904 -0.053879 0)
(0.462295 -0.0604813 0)
(0.504931 -0.0657037 0)
(0.550674 -0.0684071 0)
(0.597545 -0.0674406 0)
(0.642735 -0.0620773 0)
(0.289973 -0.000142681 0)
(0.290063 -0.000274317 0)
(0.290216 -0.000411773 0)
(0.290436 -0.000559859 0)
(0.290729 -0.000724119 0)
(0.291105 -0.000910999 0)
(0.291575 -0.00112801 0)
(0.292156 -0.00138401 0)
(0.292868 -0.00168952 0)
(0.293736 -0.00205717 0)
(0.294793 -0.00250218 0)
(0.296077 -0.00304308 0)
(0.297636 -0.00370246 0)
(0.299532 -0.004508 0)
(0.301835 -0.00549362 0)
(0.304635 -0.00670094 0)
(0.308041 -0.00818087 0)
(0.312184 -0.0099955 0)
(0.317224 -0.01222 0)
(0.323357 -0.0149445 0)
(0.330815 -0.0182755 0)
(0.33988 -0.0223358 0)
(0.350882 -0.027263 0)
(0.364214 -0.0332031 0)
(0.380326 -0.0402977 0)
(0.39973 -0.0486623 0)
(0.422987 -0.0583472 0)
(0.450683 -0.0692806 0)
(0.483376 -0.0811846 0)
(0.521508 -0.0934685 0)
(0.565256 -0.10511 0)
(0.614295 -0.114573 0)
(0.667488 -0.119848 0)
(0.722541 -0.118778 0)
(0.77586 -0.109824 0)
(0.349678 -0.000201772 0)
(0.349766 -0.000398865 0)
(0.349922 -0.000604946 0)
(0.350148 -0.000827061 0)
(0.350452 -0.00107339 0)
(0.350842 -0.00135344 0)
(0.351332 -0.00167831 0)
(0.351938 -0.00206107 0)
(0.352681 -0.00251723 0)
(0.353588 -0.00306534 0)
(0.35469 -0.00372777 0)
(0.356028 -0.00453156 0)
(0.357652 -0.00550963 0)
(0.359621 -0.00670208 0)
(0.362009 -0.00815788 0)
(0.364906 -0.00993677 0)
(0.368419 -0.0121115 0)
(0.37268 -0.0147703 0)
(0.377847 -0.0180195 0)
(0.384111 -0.0219862 0)
(0.3917 -0.0268199 0)
(0.400887 -0.0326934 0)
(0.411998 -0.0398004 0)
(0.425416 -0.0483486 0)
(0.441592 -0.0585449 0)
(0.461045 -0.0705668 0)
(0.484366 -0.0845152 0)
(0.512207 -0.100337 0)
(0.54525 -0.117709 0)
(0.584132 -0.135877 0)
(0.629298 -0.153449 0)
(0.680719 -0.168199 0)
(0.73744 -0.177012 0)
(0.796946 -0.17624 0)
(0.854634 -0.162925 0)
(0.399291 -0.000255048 0)
(0.399371 -0.000517809 0)
(0.399515 -0.000792756 0)
(0.399727 -0.00108912 0)
(0.400013 -0.00141764 0)
(0.400383 -0.00179081 0)
(0.400847 -0.00222321 0)
(0.401421 -0.00273201 0)
(0.402125 -0.00333755 0)
(0.402984 -0.00406409 0)
(0.404028 -0.0049408 0)
(0.405293 -0.00600284 0)
(0.406826 -0.00729286 0)
(0.408681 -0.00886261 0)
(0.410925 -0.010775 0)
(0.41364 -0.0131065 0)
(0.416922 -0.0159499 0)
(0.420889 -0.0194172 0)
(0.425682 -0.0236432 0)
(0.43147 -0.0287885 0)
(0.438455 -0.0350422 0)
(0.446878 -0.0426237 0)