/*--------------------------------*- C++ -*----------------------------------*\
| =========                 |                                                 |
| \\      /  F ield         | OpenFOAM: The Open Source CFD Toolbox           |
|  \\    /   O peration     | Version:  2406                                  |
|   \\  /    A nd           | Website:  www.openfoam.com                      |
|    \\/     M anipulation  |                                                 |
\*---------------------------------------------------------------------------*/
FoamFile
{
    version     2.0;
    format      ascii;
    arch        "LSB;label=32;scalar=64";
    class       volScalarField;
    location    "200";
    object      nut;
}
// * * * * * * * * * * * * * * * * * * * * * * * * * * * * * * * * * * * * * //

dimensions      [0 2 -1 0 0 0 0];

internalField   uniform 0.000851986;

boundaryField
{
    inlet
    {
        type            calculated;
        value           uniform 0.000851986;
    }
    outlet
    {
        type            calculated;
        value           uniform 0.000851986;
    }
    upperWall
    {
        type            nutkWallFunction;
        blending        stepwise;
        value           uniform 0;
    }
    lowerWall
    {
        type            nutkWallFunction;
        blending        stepwise;
        value           nonuniform List<scalar> 
250
(
0
0
0
0
0
0
0
0
0
0
0
0
0
0
0
0
0
0
0
0
0
0
0
0
0
0
0
0
0
0
0
0
0
0
0
0
0
0
0
0
0
0
0
0
0
0
4.85305e-06
4.84785e-06
4.84262e-06
4.83734e-06
4.83202e-06
4.82665e-06
4.82125e-06
4.8158e-06
4.81031e-06
4.80478e-06
4.7992e-06
4.79358e-06
4.78792e-06
4.78221e-06
4.77646e-06
4.77066e-06
4.76482e-06
4.75893e-06
4.75299e-06
4.74701e-06
4.74098e-06
4.73491e-06
4.72878e-06
4.72261e-06
4.71639e-06
4.71012e-06
4.7038e-06
4.69743e-06
4.69101e-06
4.68454e-06
4.67803e-06
4.67145e-06
4.66483e-06
4.65816e-06
4.65143e-06
4.64465e-06
4.63782e-06
4.63093e-06
4.62399e-06
4.61699e-06
4.60994e-06
4.60284e-06
4.59568e-06
4.58846e-06
4.58118e-06
4.57385e-06
4.56646e-06
4.55901e-06
4.55151e-06
4.54394e-06
4.53631e-06
4.52863e-06
4.52088e-06
4.51308e-06
4.50521e-06
4.49728e-06
4.48929e-06
4.48123e-06
4.47311e-06
4.46493e-06
4.45668e-06
4.44837e-06
4.43999e-06
4.43155e-06
4.42304e-06
4.41446e-06
4.40581e-06
4.3971e-06
4.38832e-06
4.37947e-06
4.37054e-06
4.36155e-06
4.35249e-06
4.34336e-06
4.33415e-06
4.32487e-06
4.31552e-06
4.30609e-06
4.29659e-06
4.28702e-06
4.27737e-06
4.26764e-06
4.25784e-06
4.24795e-06
4.23799e-06
4.22796e-06
4.21784e-06
4.20764e-06
4.19736e-06
4.187e-06
4.17656e-06
4.16604e-06
4.15543e-06
4.14474e-06
4.13396e-06
4.1231e-06
4.11215e-06
4.10112e-06
4.09e-06
4.07879e-06
4.06749e-06
4.0561e-06
4.04462e-06
4.03306e-06
4.0214e-06
4.00964e-06
3.9978e-06
3.98586e-06
3.97382e-06
3.96169e-06
3.94946e-06
3.93714e-06
3.92472e-06
3.9122e-06
3.89958e-06
3.88686e-06
3.87404e-06
3.86111e-06
3.84809e-06
3.83496e-06
3.82173e-06
3.80839e-06
3.79494e-06
3.78139e-06
3.76773e-06
3.75396e-06
3.74009e-06
3.7261e-06
3.712e-06
3.69778e-06
3.68346e-06
3.66902e-06
3.65447e-06
3.63979e-06
3.62501e-06
3.6101e-06
3.59508e-06
3.57993e-06
3.56467e-06
3.54928e-06
3.53377e-06
3.51814e-06
3.50238e-06
3.48649e-06
3.47048e-06
3.45434e-06
3.43807e-06
3.42167e-06
3.40514e-06
3.38848e-06
3.37168e-06
3.35475e-06
3.33768e-06
3.32048e-06
3.30314e-06
3.28566e-06
3.26804e-06
3.25028e-06
3.23237e-06
3.21433e-06
3.19613e-06
3.17779e-06
3.15931e-06
3.14067e-06
3.12189e-06
3.10295e-06
3.08386e-06
3.06462e-06
3.04523e-06
3.02567e-06
3.00596e-06
2.98609e-06
2.96606e-06
2.94587e-06
2.92552e-06
2.905e-06
2.88432e-06
2.86346e-06
2.84244e-06
2.73271e-06
2.6445e-06
2.55273e-06
2.45725e-06
2.35792e-06
2.25456e-06
2.147e-06
2.03507e-06
1.91857e-06
1.79732e-06
1.67109e-06
1.53968e-06
1.40285e-06
1.26037e-06
1.11197e-06
9.57398e-07
7.96365e-07
6.28573e-07
4.53709e-07
2.71437e-07
8.14032e-08
0
0
0
0
)
;
    }
    frontAndBack
    {
        type            empty;
    }
}


// ************************************************************************* //
