/*--------------------------------*- C++ -*----------------------------------*\
| =========                 |                                                 |
| \\      /  F ield         | OpenFOAM: The Open Source CFD Toolbox           |
|  \\    /   O peration     | Version:  2406                                  |
|   \\  /    A nd           | Website:  www.openfoam.com                      |
|    \\/     M anipulation  |                                                 |
\*---------------------------------------------------------------------------*/
FoamFile
{
    version     2.0;
    format      ascii;
    arch        "LSB;label=32;scalar=64";
    class       volScalarField;
    location    "200";
    object      p;
}
// * * * * * * * * * * * * * * * * * * * * * * * * * * * * * * * * * * * * * //

dimensions      [0 2 -2 0 0 0 0];

internalField   nonuniform List<scalar> 
150000
(
239.056
131.916
74.9267
51.6388
38.284
29.4707
23.7022
19.7277
16.7787
14.4699
12.5934
11.0227
9.67729
8.50398
7.46585
6.5363
5.69554
4.92843
4.22317
3.57038
2.96251
2.39336
1.85784
1.35168
0.871296
0.413636
-0.0239029
-0.443564
-0.847289
-1.23677
-1.61349
-1.97874
-2.33369
-2.67935
-3.01664
-3.34636
-3.66925
-3.98597
-4.29711
-4.60321
-4.90477
-5.20224
-5.49601
-5.78648
-6.07398
-6.35885
-6.64137
-6.92182
-7.20046
-7.47753
-7.75326
-8.02787
-8.30155
-8.5745
-8.8469
-9.11892
-9.39074
-9.66253
-9.93443
-10.2066
-10.4792
-10.7524
-11.0263
-11.301
-11.5768
-11.8538
-12.1321
-12.4118
-12.6932
-12.9764
-13.2615
-13.5488
-13.8383
-14.1304
-14.4252
-14.7229
-15.0237
-15.328
-15.6359
-15.9477
-16.2638
-16.5845
-16.9101
-17.2412
-17.578
-17.9213
-18.2715
-18.6292
-18.9953
-19.3705
-19.7557
-20.152
-20.5609
-20.9848
-21.4286
-21.905
-22.4402
-23.0581
-23.8264
-25.7095
138.222
98.5958
69.0017
52.4205
41.0035
32.555
26.5144
22.1251
18.7872
16.1531
14.015
12.236
10.7241
9.41638
8.2684
7.24801
6.33124
5.49986
4.73972
4.03966
3.39073
2.78568
2.21856
1.68442
1.17912
0.699173
0.241604
-0.196135
-0.616239
-1.02061
-1.41092
-1.78861
-2.15498
-2.51115
-2.85814
-3.19684
-3.52805
-3.85251
-4.17086
-4.4837
-4.79155
-5.09492
-5.39423
-5.68991
-5.98232
-6.27182
-6.55872
-6.84332
-7.1259
-7.40672
-7.68601
-7.96401
-8.24094
-8.51699
-8.79236
-9.06724
-9.34181
-9.61624
-9.8907
-10.1653
-10.4403
-10.7159
-10.992
-11.269
-11.547
-11.8261
-12.1064
-12.3883
-12.6717
-12.9569
-13.2441
-13.5334
-13.825
-14.1191
-14.416
-14.7159
-15.0189
-15.3254
-15.6356
-15.9499
-16.2686
-16.592
-16.9206
-17.2548
-17.5952
-17.9423
-18.2969
-18.6597
-19.0317
-19.414
-19.8081
-20.2159
-20.64
-21.0843
-21.5553
-22.0642
-22.6289
-23.2756
-24.1069
-25.4901
89.6974
78.4649
63.8162
51.6733
42.0601
34.433
28.5562
24.0412
20.4981
17.6546
15.3267
13.3842
11.734
10.3099
9.06388
7.96039
6.97274
6.08047
5.26767
4.52175
3.83264
3.19217
2.59365
2.03155
1.50122
0.998771
0.520892
0.0647516
-0.372084
-0.791723
-1.196
-1.58651
-1.96468
-2.33173
-2.68879
-3.03682
-3.37672
-3.70925
-4.03514
-4.35502
-4.66948
-4.97904
-5.28417
-5.58533
-5.88292
-6.1773
-6.46882
-6.7578
-7.04454
-7.3293
-7.61236
-7.89395
-8.1743
-8.45363
-8.73215
-9.01004
-9.28751
-9.56474
-9.84189
-10.1191
-10.3967
-10.6746
-10.9532
-11.2325
-11.5127
-11.794
-12.0766
-12.3605
-12.6461
-12.9334
-13.2227
-13.514
-13.8078
-14.104
-14.403
-14.705
-15.0102
-15.3189
-15.6315
-15.9482
-16.2693
-16.5954
-16.9268
-17.264
-17.6076
-17.9582
-18.3167
-18.684
-19.0612
-19.4496
-19.8511
-20.268
-20.7035
-21.162
-21.6496
-22.1749
-22.7484
-23.3803
-24.0903
-24.9076
69.0636
65.4189
57.1959
48.4286
40.8474
34.4767
29.2258
24.9607
21.4868
18.6268
16.2432
14.2305
12.5082
11.0156
9.70684
8.54689
7.50888
6.57182
5.71918
4.93779
4.21701
3.54819
2.9242
2.33914
1.78807
1.26681
0.771811
0.300055
-0.15107
-0.583817
-1.00015
-1.40178
-1.79022
-2.1668
-2.53269
-2.88895
-3.2365
-3.57619
-3.90877
-4.23492
-4.55527
-4.87036
-5.1807
-5.48678
-5.789
-6.08777
-6.38345
-6.67638
-6.96686
-7.25519
-7.54164
-7.82646
-8.1099
-8.39219
-8.67353
-8.95414
-9.23422
-9.51394
-9.79351
-10.0731
-10.3529
-10.633
-10.9137
-11.195
-11.4772
-11.7605
-12.0449
-12.3308
-12.6181
-12.9072
-13.1983
-13.4914
-13.7868
-14.0848
-14.3855
-14.6892
-14.9961
-15.3066
-15.6209
-15.9394
-16.2624
-16.5903
-16.9236
-17.2628
-17.6085
-17.9613
-18.3221
-18.6918
-19.0716
-19.4627
-19.867
-20.2866
-20.724
-21.1824
-21.6654
-22.1763
-22.7159
-23.2778
-23.8419
-24.3628
56.4117
55.0822
50.4198
44.4609
38.7661
33.6406
29.142
25.2901
22.0272
19.2615
16.9055
14.8841
13.1346
11.6065
10.2593
9.06126
7.9868
7.01568
6.13159
5.32136
4.57423
3.88137
3.23544
2.63036
2.06097
1.52294
1.01257
0.526672
0.0625272
-0.382235
-0.809676
-1.2216
-1.61959
-2.00505
-2.37921
-2.74318
-3.09795
-3.44439
-3.78331
-4.11541
-4.44134
-4.76169
-5.07701
-5.38777
-5.69442
-5.99739
-6.29704
-6.59374
-6.8878
-7.17954
-7.46923
-7.75715
-8.04354
-8.32865
-8.61269
-8.89588
-9.17843
-9.46053
-9.74237
-10.0241
-10.306
-10.5882
-10.8708
-11.1541
-11.4381
-11.7231
-12.0093
-12.2968
-12.5858
-12.8765
-13.169
-13.4636
-13.7605
-14.0599
-14.362
-14.6671
-14.9754
-15.2871
-15.6027
-15.9224
-16.2465
-16.5756
-16.91
-17.2502
-17.5968
-17.9505
-18.3119
-18.6819
-19.0616
-19.4521
-19.8547
-20.2708
-20.7021
-21.1496
-21.614
-22.0936
-22.5822
-23.0649
-23.5125
-23.8752
47.7134
47.2646
44.5963
40.6028
36.3875
32.3315
28.5721
25.1964
22.224
19.6266
17.3603
15.3793
13.6404
12.1053
10.7414
9.5214
8.42281
7.42702
6.51873
5.68528
4.91622
4.2028
3.53772
2.91485
2.32896
1.77564
1.25109
0.752062
0.275726
-0.180361
-0.618333
-1.04006
-1.4472
-1.84119
-2.22333
-2.59477
-2.95654
-3.30955
-3.65464
-3.99255
-4.32395
-4.64946
-4.96965
-5.28501
-5.59602
-5.90311
-6.20668
-6.50709
-6.80468
-7.09977
-7.39265
-7.6836
-7.97289
-8.26075
-8.54743
-8.83313
-9.11809
-9.40249
-9.68653
-9.97041
-10.2543
-10.5384
-10.8229
-11.1079
-11.3937
-11.6803
-11.9681
-12.2571
-12.5475
-12.8396
-13.1334
-13.4293
-13.7274
-14.0279
-14.331
-14.6371
-14.9463
-15.2589
-15.5752
-15.8955
-16.2202
-16.5497
-16.8842
-17.2244
-17.5707
-17.9237
-18.284
-18.6522
-19.0292
-19.4156
-19.8123
-20.2199
-20.6387
-21.0681
-21.506
-21.9475
-22.383
-22.795
-23.1557
-23.4254
41.5304
41.4022
39.7866
37.0546
33.9297
30.747
27.6565
24.7629
22.1213
19.7426
17.615
15.7173
14.0243
12.5104
11.1517
9.92692
8.8174
7.80714
6.88253
6.032
5.24578
4.51555
3.83427
3.19594
2.59541
2.02828
1.49074
0.97952
0.491756
0.0249599
-0.423048
-0.854184
-1.27014
-1.67241
-2.06232
-2.44107
-2.80971
-3.16918
-3.52036
-3.86402
-4.20084
-4.53148
-4.85651
-5.17645
-5.49181
-5.80301
-6.11047
-6.41458
-6.71568
-7.01411
-7.31017
-7.60414
-7.8963
-8.18689
-8.47617
-8.76436
-9.05167
-9.33832
-9.62451
-9.91042
-10.1963
-10.4822
-10.7684
-11.0551
-11.3425
-11.6306
-11.9198
-12.2101
-12.5018
-12.795
-13.09
-13.3869
-13.6859
-13.9872
-14.2911
-14.5977
-14.9074
-15.2203
-15.5368
-15.8572
-16.1816
-16.5106
-16.8444
-17.1835
-17.5282
-17.879
-18.2363
-18.6006
-18.9723
-19.3518
-19.7391
-20.1342
-20.536
-20.9428
-21.3507
-21.7531
-22.1393
-22.4926
-22.7899
-23.0023
36.8842
36.855
35.8066
33.8834
31.5468
29.0513
26.5303
24.0835
21.7766
19.6401
17.6828
15.9009
14.2836
12.8168
11.4849
10.2729
9.16651
8.15301
7.22098
6.36041
5.56259
4.81995
4.12595
3.47491
2.86192
2.28271
1.73356
1.21123
0.712903
0.236076
-0.221436
-0.661563
-1.08602
-1.49632
-1.89382
-2.27974
-2.65515
-3.02103
-3.37826
-3.72764
-4.06989
-4.40566
-4.73554
-5.06009
-5.37981
-5.69515
-6.00655
-6.31439
-6.61903
-6.92082
-7.22006
-7.51707
-7.81211
-8.10544
-8.39732
-8.68797
-8.97763
-9.2665
-9.55479
-9.8427
-10.1304
-10.4181
-10.7061
-10.9943
-11.2831
-11.5727
-11.8631
-12.1546
-12.4474
-12.7415
-13.0373
-13.335
-13.6346
-13.9364
-14.2406
-14.5474
-14.8571
-15.1699
-15.486
-15.8057
-16.1292
-16.4569
-16.789
-17.1258
-17.4677
-17.8148
-18.1675
-18.526
-18.8903
-19.2603
-19.6356
-20.0154
-20.3978
-20.7801
-21.1575
-21.5228
-21.8657
-22.1718
-22.4232
-22.5996
33.2204
33.2166
32.4934
31.0985
29.3257
27.3575
25.3021
23.2459
21.2523
19.3592
17.5859
15.9395
14.4197
13.0209
11.7349
10.5522
9.46319
8.45825
7.52852
6.66586
5.86291
5.11311
4.41062
3.7503
3.1276
2.53853
1.97955
1.44755
0.939797
0.453848
-0.0124454
-0.460997
-0.893508
-1.3115
-1.71633
-2.10922
-2.49127
-2.86347
-3.22669
-3.58177
-3.92943
-4.27034
-4.60511
-4.9343
-5.25842
-5.57795
-5.89332
-6.20493
-6.51316
-6.81835
-7.12083
-7.4209
-7.71885
-8.01494
-8.30943
-8.60256
-8.89455
-9.18563
-9.476
-9.76587
-10.0554
-10.3449
-10.6344
-10.9241
-11.2143
-11.5051
-11.7967
-12.0892
-12.3828
-12.6778
-12.9742
-13.2723
-13.5722
-13.8742
-14.1784
-14.485
-14.7943
-15.1063
-15.4215
-15.7399
-16.0617
-16.3873
-16.7167
-17.0503
-17.3881
-17.7303
-18.077
-18.428
-18.7832
-19.142
-19.5036
-19.8666
-20.2285
-20.5861
-20.9343
-21.2662
-21.5724
-21.8413
-22.0592
-22.2122
30.2339
30.2342
29.7093
28.667
27.2977
25.7299
24.0472
22.3207
20.6065
18.9427
17.3528
15.85
14.4402
13.124
11.8987
10.7595
9.70061
8.71556
7.79797
6.9416
6.14061
5.38959
4.68358
4.0181
3.38911
2.79299
2.2265
1.68674
1.17112
0.677325
0.20329
-0.252841
-0.692729
-1.11787
-1.5296
-1.92912
-2.31754
-2.69585
-3.06492
-3.42559
-3.77859
-4.12459
-4.46422
-4.79805
-5.12659
-5.45032
-5.76969
-6.08511
-6.39696
-6.7056
-7.01134
-7.31452
-7.6154
-7.91427
-8.21139
-8.50701
-8.80134
-9.09462
-9.38705
-9.67885
-9.97021
-10.2613
-10.5524
-10.8435
-11.135
-11.4269
-11.7194
-12.0128
-12.3072
-12.6026
-12.8995
-13.1978
-13.4978
-13.7996
-14.1034
-14.4094
-14.7178
-15.0287
-15.3423
-15.6587
-15.9783
-16.301
-16.6269
-16.9563
-17.2891
-17.6253
-17.9648
-18.3072
-18.652
-18.9985
-19.3454
-19.6909
-20.0324
-20.3664
-20.6878
-20.9905
-21.2663
-21.506
-21.6994
-21.8368
27.7405
27.7394
27.3426
26.5416
25.4644
24.2008
22.8139
21.3604
19.888
18.4315
17.015
15.6544
14.359
13.1333
11.9785
10.8933
9.87487
8.91952
8.02303
7.18102
6.38911
5.64307
4.9389
4.27286
3.64151
3.04168
2.47052
1.92538
1.40392
0.903975
0.423617
-0.0389068
-0.485183
-0.916644
-1.33459
-1.7402
-2.13453
-2.51857
-2.89319
-3.25921
-3.61736
-3.96832
-4.3127
-4.65108
-4.98397
-5.31187
-5.63522
-5.95443
-6.2699
-6.58197
-6.89099
-7.19727
-7.50109
-7.80275
-8.1025
-8.40059
-8.69725
-8.99271
-9.28719
-9.58088
-9.87398
-10.1667
-10.4592
-10.7517
-11.0443
-11.3372
-11.6306
-11.9247
-12.2196
-12.5154
-12.8124
-13.1107
-13.4104
-13.7118
-14.0149
-14.3199
-14.627
-14.9362
-15.2478
-15.5618
-15.8784
-16.1975
-16.5193
-16.8438
-17.1707
-17.5001
-17.8315
-18.1644
-18.4982
-18.8318
-19.1637
-19.492
-19.8139
-20.1259
-20.4235
-20.701
-20.9519
-21.1688
-21.344
-21.4711
25.6201
25.6172
25.3072
24.6766
23.8141
22.783
21.6304
20.401
19.1341
17.8602
16.6023
15.3765
14.1937
13.0609
11.9815
10.9567
9.9861
9.06798
8.20001
7.37937
6.60304
5.86789
5.17086
4.50898
3.87943
3.27955
2.70688
2.15913
1.63421
1.13018
0.645271
0.177876
-0.273483
-0.710154
-1.13337
-1.54424
-1.94381
-2.333
-2.71268
-3.08364
-3.4466
-3.80222
-4.15111
-4.49384
-4.83093
-5.16286
-5.49008
-5.813
-6.132
-6.44746
-6.75969
-7.06903
-7.37577
-7.68017
-7.98252
-8.28305
-8.582
-8.8796
-9.17606
-9.47158
-9.76637
-10.0606
-10.3545
-10.6482
-10.9419
-11.2357
-11.5298
-11.8244
-12.1197
-12.4157
-12.7126
-13.0107
-13.3099
-13.6105
-13.9125
-14.2162
-14.5215
-14.8287
-15.1378
-15.4489
-15.762
-16.077
-16.3941
-16.7129
-17.0335
-17.3554
-17.6781
-18.0012
-18.3236
-18.6441
-18.9613
-19.273
-19.5766
-19.8688
-20.1454
-20.4017
-20.6322
-20.8313
-20.9931
-21.1132
23.7911
23.7869
23.5385
23.0314
22.3295
21.4779
20.5116
19.4656
18.3717
17.2564
16.1401
15.0384
13.9627
12.9209
11.9179
10.9566
10.0381
9.16228
8.32827
7.53454
6.77918
6.06008
5.37502
4.72174
4.09803
3.50176
2.93087
2.38344
1.85766
1.35184
0.864411
0.39393
-0.0609478
-0.501457
-0.928738
-1.34384
-1.74772
-2.14128
-2.52534
-2.90064
-3.26789
-3.62772
-3.98074
-4.3275
-4.66849
-5.00421
-5.33508
-5.66152
-5.98391
-6.3026
-6.61793
-6.93022
-7.23976
-7.54683
-7.85168
-8.15457
-8.45573
-8.75539
-9.05375
-9.35103
-9.64741
-9.94309
-10.2382
-10.533
-10.8276
-11.1222
-11.4169
-11.7119
-12.0074
-12.3033
-12.6
-12.8975
-13.196
-13.4956
-13.7963
-14.0983
-14.4016
-14.7064
-15.0126
-15.3203
-15.6294
-15.94
-16.2518
-16.5647
-16.8783
-17.1924
-17.5062
-17.8192
-18.1302
-18.4381
-18.7411
-19.0373
-19.3241
-19.5986
-19.857
-20.0955
-20.3095
-20.4946
-20.6466
-20.7621
22.1952
22.1904
21.9873
21.5722
20.9924
20.2809
19.4636
18.5678
17.6193
16.6403
15.6489
14.6594
13.683
12.7277
11.7994
10.9018
10.0372
9.20649
8.40994
7.647
6.91671
6.21778
5.54871
4.90789
4.29368
3.70441
3.13844
2.59421
2.07019
1.56496
1.07717
0.605529
0.148864
-0.293936
-0.723903
-1.142
-1.54911
-1.94606
-2.33362
-2.71251
-3.08337
-3.44683
-3.80344
-4.15375
-4.49824
-4.83737
-5.17157
-5.50124
-5.82676
-6.14846
-6.46668
-6.78174
-7.09391
-7.40347
-7.71069
-8.0158
-8.31904
-8.62063
-8.92078
-9.21968
-9.51754
-9.81452
-10.1108
-10.4066
-10.702
-10.9972
-11.2923
-11.5875
-11.8829
-12.1787
-12.4749
-12.7717
-13.0692
-13.3674
-13.6665
-13.9666
-14.2676
-14.5696
-14.8726
-15.1766
-15.4815
-15.7872
-16.0935
-16.4001
-16.7066
-17.0127
-17.3176
-17.6205
-17.9204
-18.2161
-18.5058
-18.7877
-19.0595
-19.3183
-19.5613
-19.7848
-19.9855
-20.1597
-20.3044
-20.4171
20.7899
20.7848
20.616
20.2709
19.7856
19.1847
18.4874
17.7151
16.8886
16.0264
15.1443
14.2551
13.3692
12.4946
11.6374
10.8019
9.99095
9.20636
8.44907
7.71933
7.01688
6.3411
5.69113
5.06589
4.46422
3.8849
3.32666
2.78827
2.26849
1.76614
1.28009
0.80924
0.352569
-0.0908979
-0.522076
-0.941823
-1.35094
-1.75019
-2.14027
-2.52184
-2.89551
-3.26186
-3.62142
-3.9747
-4.32215
-4.66422
-5.00132
-5.33383
-5.66211
-5.9865
-6.30732
-6.62487
-6.93944
-7.25128
-7.56064
-7.86778
-8.17291
-8.47626
-8.77802
-9.07838
-9.37754
-9.67568
-9.97295
-10.2695
-10.5655
-10.8612
-11.1565
-11.4518
-11.747
-12.0423
-12.3379
-12.6338
-12.93
-13.2268
-13.524
-13.8219
-14.1203
-14.4193
-14.7189
-15.0189
-15.3193
-15.6199
-15.9205
-16.2206
-16.52
-16.8181
-17.1141
-17.4073
-17.6966
-17.9808
-18.2582
-18.5271
-18.7854
-19.0307
-19.2603
-19.4716
-19.6614
-19.8273
-19.9667
-20.0778
19.5425
19.5375
19.3953
19.1045
18.6936
18.1809
17.581
16.9107
16.1869
15.4247
14.6378
13.8375
13.0334
12.233
11.4424
10.6661
9.90731
9.16842
8.45085
7.75542
7.08242
6.43176
5.80306
5.19571
4.60897
4.04198
3.49382
2.96354
2.45018
1.9528
1.47045
1.00223
0.547272
0.104736
-0.32617
-0.746203
-1.15608
-1.55646
-1.94799
-2.33128
-2.70686
-3.07529
-3.43705
-3.7926
-4.14239
-4.48683
-4.82631
-5.16119
-5.4918
-5.81848
-6.14153
-6.46124
-6.77788
-7.0917
-7.40295
-7.71186
-8.01864
-8.32351
-8.62666
-8.92828
-9.22855
-9.52763
-9.82569
-10.1229
-10.4193
-10.7152
-11.0106
-11.3057
-11.6006
-11.8953
-12.19
-12.4847
-12.7795
-13.0745
-13.3697
-13.6652
-13.9608
-14.2566
-14.5525
-14.8484
-15.1442
-15.4396
-15.7343
-16.028
-16.3203
-16.6105
-16.898
-17.1819
-17.4611
-17.7346
-18.0007
-18.258
-18.5044
-18.7379
-18.9564
-19.1574
-19.3386
-19.4979
-19.6335
-19.7441
18.4282
18.4235
18.3022
18.0543
17.7025
17.2611
16.7411
16.1555
15.5182
14.8417
14.1377
13.4159
12.6851
11.9524
11.2234
10.5027
9.79377
9.09922
8.42085
7.75987
7.11699
6.49251
5.88644
5.29856
4.72846
4.1756
3.63936
3.11904
2.61393
2.12329
1.64636
1.18243
0.73075
0.290634
-0.138598
-0.557597
-0.966986
-1.36735
-1.75927
-2.14326
-2.51984
-2.88948
-3.25264
-3.60974
-3.96119
-4.30737
-4.64864
-4.98534
-5.31779
-5.6463
-5.97115
-6.29262
-6.61096
-6.92641
-7.23922
-7.54959
-7.85774
-8.16386
-8.46815
-8.77077
-9.07191
-9.37171
-9.67034
-9.96793
-10.2646
-10.5605
-10.8558
-11.1505
-11.4448
-11.7387
-12.0323
-12.3257
-12.6189
-12.912
-13.205
-13.4978
-13.7905
-14.0829
-14.375
-14.6667
-14.9577
-15.2478
-15.5368
-15.8241
-16.1094
-16.392
-16.6713
-16.9464
-17.2163
-17.4799
-17.7359
-17.9827
-18.2187
-18.4421
-18.6511
-18.8436
-19.0179
-19.1723
-19.3053
-19.416
17.4272
17.4228
17.3183
17.1048
16.8008
16.4175
15.9633
15.4486
14.8845
14.2816
13.6496
12.9971
12.3319
11.6603
10.9879
10.319
9.65707
9.00492
8.36456
7.73746
7.12462
6.52668
5.94393
5.37645
4.82412
4.28665
3.76368
3.25474
2.75931
2.27686
1.80679
1.34854
0.901511
0.465134
0.0388416
-0.377916
-0.785669
-1.18493
-1.5762
-1.95993
-2.33658
-2.70658
-3.07034
-3.42823
-3.78064
-4.1279
-4.47034
-4.80829
-5.14204
-5.47187
-5.79805
-6.12083
-6.44046
-6.75716
-7.07115
-7.38264
-7.69183
-7.9989
-8.30403
-8.60738
-8.90912
-9.20939
-9.50834
-9.80609
-10.1028
-10.3985
-10.6934
-10.9875
-11.281
-11.5739
-11.8663
-12.1581
-12.4496
-12.7406
-13.0311
-13.3212
-13.6108
-13.8998
-14.188
-14.4754
-14.7616
-15.0465
-15.3297
-15.6109
-15.8894
-16.1648
-16.4363
-16.7032
-16.9644
-17.219
-17.4658
-17.7034
-17.9303
-18.1451
-18.346
-18.5317
-18.7004
-18.851
-18.9823
-19.0936
16.5238
16.5197
16.4288
16.2432
15.9783
15.6428
15.2434
14.7882
14.2864
13.7467
13.1774
12.586
11.9792
11.3629
10.7421
10.121
9.50306
8.89102
8.28703
7.69276
7.1094
6.53782
5.97854
5.43188
4.89793
4.37666
3.86787
3.37132
2.88666
2.4135
1.95143
1.5
1.05876
0.627233
0.204972
-0.208482
-0.613577
-1.01075
-1.40041
-1.78299
-2.15885
-2.5284
-2.89197
-3.24992
-3.60258
-3.95027
-4.29327
-4.63188
-4.96637
-5.29701
-5.62402
-5.94766
-6.26813
-6.58567
-6.90046
-7.21271
-7.52258
-7.83027
-8.13592
-8.4397
-8.74175
-9.04222
-9.34122
-9.63889
-9.93534
-10.2307
-10.525
-10.8183
-11.1108
-11.4025
-11.6934
-11.9836
-12.273
-12.5618
-12.8498
-13.137
-13.4234
-13.7089
-13.9932
-14.2762
-14.5578
-14.8375
-15.1151
-15.3902
-15.6623
-15.9308
-16.195
-16.4543
-16.7076
-16.9541
-17.1926
-17.422
-17.6411
-17.8484
-18.0427
-18.2226
-18.387
-18.5348
-18.665
-18.7773
15.7051
15.7013
15.6216
15.4589
15.2262
14.9305
14.5769
14.1721
13.7235
13.2384
12.7238
12.1861
11.6314
11.0648
10.491
9.91384
9.33672
8.76231
8.19283
7.63001
7.0752
6.52941
5.99336
5.46753
4.95221
4.44753
3.95349
3.46998
2.99683
2.53378
2.08056
1.63684
1.20227
0.776512
0.359186
-0.0500724
-0.451631
-0.845851
-1.23309
-1.61369
-1.988
-2.35633
-2.71901
-3.07633
-3.42859
-3.77607
-4.11903
-4.45774
-4.79243
-5.12335
-5.45071
-5.77473
-6.09562
-6.41357
-6.72877
-7.04138
-7.35159
-7.65954
-7.96539
-8.26929
-8.57136
-8.87174
-9.17054
-9.46786
-9.76382
-10.0585
-10.352
-10.6443
-10.9356
-11.2259
-11.5152
-11.8035
-12.0909
-12.3773
-12.6626
-12.9469
-13.23
-13.5119
-13.7923
-14.071
-14.3479
-14.6226
-14.8949
-15.1642
-15.4301
-15.6921
-15.9496
-16.2017
-16.4478
-16.687
-16.9182
-17.1404
-17.3526
-17.5536
-17.7423
-17.9175
-18.0784
-18.2241
-18.3539
-18.4674
14.9605
14.9571
14.8867
14.7431
14.5372
14.2747
13.9598
13.5978
13.1948
12.757
12.2901
11.7999
11.2915
10.7696
10.2384
9.70157
9.16219
8.62291
8.08591
7.55298
7.02555
6.50474
5.99138
5.4861
4.98934
4.50137
4.02231
3.55222
3.09104
2.63865
2.19488
1.75952
1.33232
0.913025
0.501353
0.0970147
-0.300283
-0.690835
-1.07494
-1.45287
-1.82494
-2.1914
-2.55253
-2.90861
-3.25987
-3.60656
-3.94893
-4.2872
-4.62158
-4.95229
-5.27954
-5.6035
-5.92437
-6.24232
-6.55753
-6.87014
-7.18032
-7.4882
-7.79393
-8.09763
-8.39943
-8.69944
-8.99775
-9.29448
-9.58971
-9.88352
-10.176
-10.4671
-10.757
-11.0457
-11.3332
-11.6196
-11.9047
-12.1886
-12.4712
-12.7525
-13.0323
-13.3105
-13.587
-13.8615
-14.1338
-14.4037
-14.6707
-14.9345
-15.1947
-15.4506
-15.7017
-15.9474
-16.1869
-16.4195
-16.6441
-16.8601
-17.0663
-17.2619
-17.4458
-17.6173
-17.7755
-17.9196
-18.0493
-18.1642
14.2816
14.2784
14.2158
14.0881
13.9047
13.6704
13.3883
13.0629
12.6992
12.3023
11.8773
11.429
10.9618
10.4801
9.98754
9.48749
8.98289
8.47624
7.96969
7.46499
6.96363
6.46679
5.9754
5.49018
5.01167
4.54027
4.07623
3.6197
3.17073
2.72932
2.29539
1.86883
1.44949
1.03719
0.631714
0.232859
-0.159603
-0.545906
-0.926287
-1.30098
-1.67023
-2.03426
-2.3933
-2.74757
-3.0973
-3.4427
-3.78397
-4.12132
-4.45493
-4.78498
-5.11167
-5.43516
-5.75561
-6.07318
-6.38802
-6.70027
-7.01008
-7.31757
-7.62286
-7.92607
-8.2273
-8.52667
-8.82425
-9.12013
-9.4144
-9.70711
-9.99832
-10.2881
-10.5764
-10.8634
-11.149
-11.4331
-11.7159
-11.9972
-12.277
-12.5552
-12.8317
-13.1063
-13.3789
-13.6493
-13.9172
-14.1824
-14.4444
-14.703
-14.9577
-15.2079
-15.4533
-15.693
-15.9265
-16.1531
-16.372
-16.5824
-16.7835
-16.9744
-17.1544
-17.3227
-17.4788
-17.6219
-17.7518
-17.8681
13.6608
13.6579
13.6019
13.4876
13.3232
13.1128
12.8588
12.5648
12.2351
11.874
11.4857
11.0743
10.644
10.1983
9.74073
9.27426
8.80163
8.3252
7.84704
7.36889
6.89222
6.41824
5.94795
5.48213
5.02143
4.5663
4.11711
3.67409
3.2374
2.80711
2.38324
1.96577
1.5546
1.14965
0.750775
0.357825
-0.0293626
-0.410965
-0.787164
-1.15815
-1.52411
-1.88523
-2.24171
-2.59374
-2.94148
-3.28514
-3.62488
-3.96088
-4.29329
-4.62229
-4.94803
-5.27066
-5.59032
-5.90715
-6.22129
-6.53286
-6.84198
-7.14877
-7.45333
-7.75577
-8.05617
-8.35464
-8.65123
-8.94604
-9.23913
-9.53053
-9.82032
-10.1085
-10.3951
-10.6802
-10.9637
-11.2456
-11.5259
-11.8046
-12.0815
-12.3566
-12.6298
-12.9008
-13.1696
-13.436
-13.6996
-13.9602
-14.2175
-14.4712
-14.7207
-14.9657
-15.2057
-15.44
-15.6681
-15.8893
-16.1031
-16.3086
-16.5051
-16.6921
-16.8688
-17.0345
-17.1889
-17.3313
-17.4615
-17.5794
13.0921
13.0895
13.0391
12.9362
12.788
12.598
12.3681
12.1013
11.8011
11.4712
11.1151
10.7366
10.3391
9.92583
9.49986
9.06398
8.62067
8.17217
7.72043
7.26713
6.81373
6.36144
5.9113
5.46414
5.02065
4.58138
4.14674
3.71705
3.29255
2.87339
2.45966
2.0514
1.6486
1.25123
0.859219
0.472471
0.0908772
-0.285685
-0.65735
-1.02426
-1.38656
-1.74441
-2.09795
-2.44734
-2.79273
-3.13427
-3.47211
-3.80639
-4.13726
-4.46485
-4.7893
-5.11073
-5.42928
-5.74506
-6.05819
-6.36878
-6.67692
-6.98274
-7.2863
-7.58771
-7.88704
-8.18437
-8.47977
-8.7733
-9.065
-9.35492
-9.6431
-9.92956
-10.2143
-10.4974
-10.7787
-11.0583
-11.3361
-11.612
-11.886
-12.158
-12.4279
-12.6954
-12.9605
-13.2229
-13.4824
-13.7387
-13.9915
-14.2404
-14.4852
-14.7253
-14.9602
-15.1896
-15.4128
-15.6292
-15.8384
-16.0396
-16.2322
-16.4158
-16.5896
-16.7533
-16.9063
-17.0483
-17.179
-17.2984
12.5704
12.5679
12.5223
12.4291
12.2949
12.1225
11.9133
11.6701
11.3956
11.093
10.7655
10.4161
10.0479
9.66371
9.26635
8.8583
8.44187
8.01912
7.59188
7.16179
6.73024
6.29846
5.86747
5.43815
5.01122
4.58727
4.16679
3.75015
3.33765
2.9295
2.52587
2.12685
1.73249
1.34283
0.957835
0.577477
0.201695
-0.169588
-0.536461
-0.899024
-1.25739
-1.61166
-1.96196
-2.30842
-2.65114
-2.99026
-3.32589
-3.65816
-3.98718
-4.31306
-4.63593
-4.95589
-5.27304
-5.5875
-5.89935
-6.20869
-6.51562
-6.82021
-7.12254
-7.4227
-7.72074
-8.01674
-8.31073
-8.60279
-8.89294
-9.18121
-9.46764
-9.75223
-10.035
-10.3159
-10.595
-10.8721
-11.1473
-11.4205
-11.6916
-11.9605
-12.2271
-12.4912
-12.7526
-13.0112
-13.2667
-13.5189
-13.7674
-14.012
-14.2522
-14.4878
-14.7182
-14.943
-15.1617
-15.3738
-15.5788
-15.7762
-15.9655
-16.146
-16.3175
-16.4794
-16.6313
-16.7731
-16.9044
-17.0253
12.091
12.0887
12.0472
11.9625
11.8402
11.6829
11.4919
11.2691
11.0172
10.7387
10.4363
10.1128
9.77072
9.41274
9.04126
8.65855
8.26671
7.86765
7.46311
7.05462
6.64354
6.23106
5.81821
5.40587
4.99478
4.58558
4.17879
3.77483
3.37405
2.97673
2.58307
2.19322
1.80729
1.42536
1.04745
0.673591
0.303751
-0.0620967
-0.424002
-0.782026
-1.13624
-1.48673
-1.83356
-2.17685
-2.51667
-2.85312
-3.1863
-3.5163
-3.84323
-4.16716
-4.48821
-4.80645
-5.12197
-5.43487
-5.74521
-6.05309
-6.35858
-6.66174
-6.96265
-7.26135
-7.55792
-7.8524
-8.14483
-8.43526
-8.7237
-9.01019
-9.29474
-9.57735
-9.85801
-10.1367
-10.4134
-10.6881
-10.9607
-11.2311
-11.4993
-11.7651
-12.0285
-12.2892
-12.5471
-12.802
-13.0537
-13.3019
-13.5464
-13.7868
-14.0229
-14.2542
-14.4803
-14.701
-14.9156
-15.1238
-15.3252
-15.5192
-15.7054
-15.8834
-16.0528
-16.2132
-16.3644
-16.506
-16.6379
-16.7602
11.6502
11.6481
11.6101
11.5327
11.4208
11.2767
11.1014
10.8965
10.6643
10.407
10.127
9.82648
9.50788
9.17346
8.82538
8.46571
8.09636
7.7191
7.33554
6.94713
6.55517
6.16081
5.76507
5.36882
4.97283
4.57775
4.18413
3.79243
3.40304
3.01627
2.63238
2.25156
1.87398
1.49974
1.12892
0.76158
0.397744
0.0374155
-0.319416
-0.672775
-1.0227
-1.36924
-1.71245
-2.05239
-2.38912
-2.72273
-3.05326
-3.38081
-3.70544
-4.02723
-4.34625
-4.66258
-4.97628
-5.28742
-5.59608
-5.90231
-6.20618
-6.50774
-6.80704
-7.10414
-7.39908
-7.69189
-7.98262
-8.27128
-8.5579
-8.84249
-9.12505
-9.40558
-9.68407
-9.96049
-10.2348
-10.507
-10.7769
-11.0446
-11.3099
-11.5727
-11.8328
-12.0903
-12.3447
-12.5961
-12.8441
-13.0886
-13.3292
-13.5658
-13.7979
-14.0253
-14.2475
-14.4643
-14.6753
-14.88
-15.078
-15.269
-15.4525
-15.6283
-15.7959
-15.955
-16.1055
-16.2471
-16.3797
-16.5032
11.2446
11.2427
11.2078
11.1367
11.0339
10.9013
10.7397
10.5505
10.3357
10.0972
9.83695
9.557
9.25941
8.9462
8.6193
8.28058
7.93179
7.57454
7.21034
6.84054
6.4664
6.08902
5.70937
5.32834
4.94668
4.56506
4.18406
3.80415
3.42576
3.04923
2.67486
2.30289
1.9335
1.56685
1.20305
0.84221
0.484376
0.129594
-0.222113
-0.57074
-0.916293
-1.25879
-1.59826
-1.93473
-2.26825
-2.59886
-2.92661
-3.25155
-3.57374
-3.89323
-4.21008
-4.52434
-4.83606
-5.1453
-5.45211
-5.75655
-6.05865
-6.35846
-6.65603
-6.95138
-7.24456
-7.53559
-7.82449
-8.11129
-8.39598
-8.67858
-8.95908
-9.23747
-9.51373
-9.78782
-10.0597
-10.3293
-10.5967
-10.8616
-11.124
-11.3838
-11.6409
-11.8951
-12.1462
-12.3942
-12.6387
-12.8796
-13.1166
-13.3495
-13.5779
-13.8016
-14.0203
-14.2336
-14.4411
-14.6426
-14.8377
-15.0259
-15.2071
-15.3809
-15.5469
-15.705
-15.8549
-15.9965
-16.1297
-16.2544
10.8715
10.8696
10.8375
10.7719
10.677
10.5544
10.4049
10.2296
10.0301
9.80824
9.56559
9.30399
9.02524
8.73114
8.42341
8.10374
7.77372
7.43484
7.08848
6.73593
6.37836
6.01683
5.65229
5.28559
4.9175
4.54867
4.1797
3.81109
3.44327
3.07663
2.71149
2.34811
1.98673
1.62752
1.27064
0.916215
0.564337
0.21508
-0.131504
-0.475377
-0.816519
-1.15492
-1.49058
-1.82351
-2.15372
-2.48125
-2.80611
-3.12834
-3.44798
-3.76505
-4.07961
-4.39168
-4.7013
-5.00852
-5.31337
-5.61589
-5.91611
-6.21407
-6.50978
-6.80329
-7.09461
-7.38376
-7.67075
-7.95559
-8.23828
-8.51882
-8.7972
-9.0734
-9.34739
-9.61913
-9.88858
-10.1557
-10.4204
-10.6825
-10.9421
-11.199
-11.4531
-11.7042
-11.9521
-12.1968
-12.438
-12.6755
-12.9091
-13.1385
-13.3635
-13.5838
-13.7991
-14.0091
-14.2136
-14.4121
-14.6044
-14.7903
-14.9693
-15.1413
-15.3059
-15.4631
-15.6125
-15.7542
-15.8879
-16.0138
10.5282
10.5265
10.4967
10.4359
10.3479
10.2342
10.0953
9.93219
9.74636
9.53921
9.31225
9.06707
8.80524
8.52836
8.23799
7.93563
7.62275
7.30069
6.97077
6.63416
6.29197
5.94522
5.59482
5.24159
4.88629
4.52959
4.17205
3.81422
3.45653
3.0994
2.74315
2.3881
2.03449
1.68254
1.33242
0.984297
0.638286
0.294491
-0.0470079
-0.386147
-0.722878
-1.05717
-1.38899
-1.71834
-2.0452
-2.36958
-2.69149
-3.01094
-3.32794
-3.64252
-3.9547
-4.26449
-4.57193
-4.87704
-5.17983
-5.48035
-5.7786
-6.07461
-6.3684
-6.65998
-6.94936
-7.23656
-7.52157
-7.8044
-8.08503
-8.36347
-8.63969
-8.91366
-9.18536
-9.45473
-9.72174
-9.98632
-10.2484
-10.5079
-10.7647
-11.0187
-11.2698
-11.5179
-11.7628
-12.0043
-12.2423
-12.4766
-12.7069
-12.9331
-13.1549
-13.372
-13.5842
-13.7912
-13.9928
-14.1887
-14.3785
-14.5621
-14.7392
-14.9096
-15.073
-15.2293
-15.3783
-15.52
-15.6543
-15.7812
10.2125
10.2109
10.1832
10.1267
10.0448
9.93884
9.80929
9.65704
9.48327
9.28925
9.0763
8.84581
8.59918
8.33784
8.06318
7.77656
7.47931
7.17268
6.85786
6.53596
6.20803
5.87503
5.53783
5.19723
4.85397
4.5087
4.162
3.81441
3.46639
3.11836
2.77066
2.42363
2.07754
1.73262
1.38908
1.04711
0.706845
0.368416
0.031929
-0.302528
-0.634885
-0.965083
-1.29308
-1.61883
-1.94233
-2.26354
-2.58246
-2.89908
-3.2134
-3.52543
-3.83517
-4.14263
-4.44782
-4.75075
-5.05143
-5.34987
-5.64609
-5.9401
-6.23189
-6.52148
-6.80888
-7.09407
-7.37705
-7.65783
-7.93638
-8.21268
-8.48671
-8.75845
-9.02785
-9.29486
-9.55944
-9.82152
-10.081
-10.3379
-10.592
-10.8432
-11.0915
-11.3366
-11.5786
-11.8171
-12.052
-12.2832
-12.5105
-12.7336
-12.9524
-13.1665
-13.3758
-13.58
-13.779
-13.9724
-14.1599
-14.3415
-14.5169
-14.6858
-14.8481
-15.0036
-15.1523
-15.294
-15.4288
-15.5565
9.92261
9.9211
9.89525
9.84241
9.7659
9.66684
9.54559
9.40291
9.23986
9.05754
8.85711
8.63979
8.40684
8.15951
7.89907
7.62675
7.34375
7.05123
6.75028
6.44195
6.12721
5.80697
5.48206
5.15327
4.8213
4.4868
4.15034
3.81246
3.47363
3.13426
2.79475
2.45541
2.11655
1.77843
1.44126
1.10526
0.770594
0.437407
0.105831
-0.224026
-0.55207
-0.878223
-1.20242
-1.5246
-1.84473
-2.16277
-2.47869
-2.79247
-3.10409
-3.41354
-3.72082
-4.0259
-4.3288
-4.62952
-4.92804
-5.22437
-5.51852
-5.81047
-6.10023
-6.3878
-6.67316
-6.95632
-7.23725
-7.51594
-7.79238
-8.06654
-8.33838
-8.60788
-8.87498
-9.13965
-9.40182
-9.66144
-9.91841
-10.1727
-10.4241
-10.6727
-10.9182
-11.1605
-11.3996
-11.6352
-11.8673
-12.0956
-12.3199
-12.5402
-12.756
-12.9674
-13.174
-13.3757
-13.5721
-13.7632
-13.9487
-14.1284
-14.3021
-14.4697
-14.631
-14.7858
-14.9341
-15.0759
-15.211
-15.3396
9.65671
9.65529
9.63106
9.58152
9.50976
9.41679
9.30289
9.16872
9.01521
8.84333
8.65409
8.44859
8.22793
7.99325
7.74568
7.48634
7.21633
6.9367
6.64848
6.35263
6.05007
5.74165
5.42817
5.11039
4.78898
4.46458
4.13776
3.80905
3.47892
3.1478
2.81607
2.48409
2.15216
1.82057
1.48954
1.15932
0.830071
0.501979
0.175187
-0.150174
-0.473992
-0.796171
-1.11663
-1.43528
-1.75208
-2.06697
-2.37991
-2.69085
-2.99976
-3.30663
-3.61142
-3.91412
-4.21471
-4.51319
-4.80953
-5.10372
-5.39577
-5.68565
-5.97335
-6.25887
-6.54219
-6.82329
-7.10215
-7.37875
-7.65307
-7.92508
-8.19474
-8.46201
-8.72684
-8.98919
-9.24899
-9.50618
-9.76068
-10.0124
-10.2613
-10.5072
-10.75
-10.9897
-11.226
-11.4589
-11.6882
-11.9137
-12.1353
-12.3528
-12.566
-12.7748
-12.9788
-13.1781
-13.3723
-13.5612
-13.7448
-13.9227
-14.0949
-14.2613
-14.4216
-14.5758
-14.7238
-14.8655
-15.001
-15.1302
9.41334
9.41199
9.38919
9.34257
9.27502
9.18745
9.08007
8.95347
8.80846
8.64589
8.46668
8.27177
8.06217
7.8389
7.60298
7.35542
7.09723
6.82937
6.5528
6.26842
5.97707
5.67958
5.37671
5.06916
4.75761
4.44266
4.12489
3.8048
3.48288
3.15956
2.83523
2.51025
2.18494
1.85959
1.53446
1.20978
0.88577
0.562604
0.240453
-0.0805382
-0.400239
-0.718534
-1.03532
-1.35052
-1.66404
-1.97582
-2.2858
-2.59392
-2.90015
-3.20444
-3.50676
-3.80707
-4.10536
-4.40158
-4.69574
-4.98779
-5.27772
-5.56552
-5.85116
-6.13462
-6.41588
-6.69492
-6.97171
-7.24623
-7.51843
-7.7883
-8.05579
-8.32085
-8.58343
-8.84349
-9.10096
-9.35577
-9.60786
-9.85713
-10.1035
-10.3469
-10.5871
-10.8242
-11.0579
-11.2881
-11.5148
-11.7377