/*--------------------------------*- C++ -*----------------------------------*\
| =========                 |                                                 |
| \\      /  F ield         | OpenFOAM: The Open Source CFD Toolbox           |
|  \\    /   O peration     | Version:  2406                                  |
|   \\  /    A nd           | Website:  www.openfoam.com                      |
|    \\/     M anipulation  |                                                 |
\*---------------------------------------------------------------------------*/
FoamFile
{
    version     2.0;
    format      ascii;
    arch        "LSB;label=32;scalar=64";
    class       volScalarField;
    location    "200";
    object      p;
}
// * * * * * * * * * * * * * * * * * * * * * * * * * * * * * * * * * * * * * //

dimensions      [0 2 -2 0 0 0 0];

internalField   nonuniform List<scalar> 
12225
(
-4.20768
-5.03861
-5.24054
-5.27298
-5.34483
-5.41146
-5.45277
-5.47733
-5.48853
-5.48416
-5.46113
-5.41451
-5.33766
-5.21017
-5.02067
-4.60594
-4.09945
-0.86107
-4.31004
-4.96344
-5.17204
-5.22941
-5.30859
-5.37786
-5.42138
-5.44755
-5.45981
-5.45613
-5.43355
-5.38722
-5.31098
-5.18604
-5.00637
-4.6592
-4.29796
-3.63623
-4.47557
-4.95521
-5.16306
-5.23178
-5.30849
-5.37654
-5.42073
-5.44758
-5.46058
-5.45805
-5.43725
-5.39394
-5.32299
-5.21002
-5.05422
-4.79794
-4.61164
-4.48002
-4.61117
-4.96402
-5.16774
-5.24353
-5.31571
-5.38153
-5.42598
-5.45336
-5.46719
-5.46624
-5.44815
-5.40952
-5.34669
-5.25056
-5.12522
-4.94988
-4.85316
-4.81434
-4.72345
-4.98253
-5.17364
-5.25484
-5.32333
-5.38674
-5.43147
-5.45966
-5.47475
-5.47608
-5.46177
-5.42945
-5.3772
-5.30083
-5.20807
-5.09863
-5.06209
-5.11127
-4.82192
-5.01073
-5.18264
-5.26724
-5.33281
-5.39358
-5.43849
-5.46781
-5.48466
-5.48898
-5.47954
-5.45506
-5.41534
-5.36023
-5.29964
-5.24398
-5.25627
-5.36693
-4.90976
-5.04643
-5.19621
-5.28168
-5.34485
-5.40283
-5.44778
-5.47849
-5.49759
-5.50559
-5.50197
-5.48652
-5.46055
-5.42683
-5.39613
-5.38312
-5.43119
-5.56883
-4.98844
-5.08711
-5.21445
-5.29824
-5.35934
-5.41461
-5.45946
-5.49179
-5.51359
-5.52587
-5.52883
-5.52319
-5.5114
-5.49803
-5.49359
-5.51284
-5.58459
-5.72962
-5.05935
-5.13084
-5.23712
-5.31701
-5.37619
-5.42902
-5.47367
-5.50778
-5.53269
-5.54974
-5.55978
-5.56426
-5.56637
-5.57143
-5.58892
-5.63151
-5.71776
-5.86073
-5.12383
-5.17612
-5.26374
-5.33815
-5.39537
-5.44613
-5.49057
-5.52656
-5.55487
-5.57703
-5.59436
-5.60884
-5.62393
-5.64497
-5.67995
-5.73868
-5.83272
-5.96911
-5.18303
-5.22184
-5.29366
-5.3617
-5.41682
-5.46592
-5.51024
-5.54816
-5.58006
-5.60746
-5.63202
-5.65595
-5.68268
-5.71702
-5.76532
-5.83461
-5.93171
-6.05959
-5.2334
-5.26357
-5.32348
-5.38544
-5.43849
-5.4864
-5.53075
-5.57046
-5.60569
-5.63786
-5.66873
-5.70055
-5.73647
-5.78058
-5.83777
-5.91292
-6.01001
-6.1298
-5.28014
-5.30425
-5.35444
-5.41059
-5.46156
-5.50856
-5.55309
-5.59456
-5.63306
-5.66979
-5.7065
-5.74533
-5.78901
-5.84085
-5.90441
-5.9829
-6.07837
-6.19031
-5.33001
-5.34931
-5.39089
-5.4411
-5.48973
-5.53597
-5.5809
-5.62437
-5.66641
-5.70799
-5.75066
-5.7963
-5.84708
-5.90541
-5.97364
-6.0535
-6.14573
-6.24916
-5.38236
-5.39799
-5.43256
-5.47725
-5.52348
-5.56917
-5.61481
-5.66047
-5.70617
-5.75259
-5.80095
-5.85269
-5.90935
-5.97247
-6.04333
-6.12262
-6.2103
-6.30503
-5.43598
-5.44901
-5.47843
-5.51861
-5.56273
-5.60819
-5.65489
-5.70288
-5.75212
-5.803
-5.85628
-5.91293
-5.97381
-6.03976
-6.11124
-6.18834
-6.27058
-6.35683
-5.48873
-5.50014
-5.52632
-5.56353
-5.60633
-5.65206
-5.70015
-5.7505
-5.80294
-5.85753
-5.91461
-5.97462
-6.03792
-6.10476
-6.17516
-6.24884
-6.32528
-6.40352
-5.53662
-5.54737
-5.57227
-5.60849
-5.65131
-5.69809
-5.748
-5.80071
-5.8559
-5.91331
-5.97292
-6.03475
-6.09883
-6.16504
-6.23318
-6.30284
-6.37357
-6.44467
-5.57206
-5.58329
-5.60927
-5.64712
-5.69198
-5.74109
-5.79353
-5.84883
-5.90646
-5.96594
-6.027
-6.08944
-6.15308
-6.21765
-6.28288
-6.34841
-6.41389
-6.47884
-5.57822
-5.5914
-5.6215
-5.66421
-5.71337
-5.76604
-5.82164
-5.8797
-5.93959
-6.00068
-6.0627
-6.12535
-6.18846
-6.2517
-6.31487
-6.37761
-6.4397
-6.50077
-5.5642
-5.58035
-5.61667
-5.66608
-5.72036
-5.77687
-5.83568
-5.89647
-5.95838
-6.02087
-6.08365
-6.14658
-6.20938
-6.27187
-6.33374
-6.39484
-6.45487
-6.51371
-5.53444
-5.55561
-5.6016
-5.65988
-5.71986
-5.78036
-5.84262
-5.90618
-5.97002
-6.03374
-6.09726
-6.16048
-6.22316
-6.28513
-6.34619
-6.40618
-6.4649
-6.52223
-5.49116
-5.52076
-5.58092
-5.64967
-5.71508
-5.77953
-5.8454
-5.91164
-5.97718
-6.04198
-6.1062
-6.16973
-6.23242
-6.29408
-6.35463
-6.41386
-6.47173
-6.52804
-5.43523
-5.47907
-5.55898
-5.63845
-5.70823
-5.77661
-5.84614
-5.91474
-5.98162
-6.04733
-6.11216
-6.17599
-6.2387
-6.30019
-6.36036
-6.41912
-6.47636
-6.53194
-5.36648
-5.43407
-5.53962
-5.62802
-5.70065
-5.77306
-5.84607
-5.91647
-5.98433
-6.05077
-6.11609
-6.18017
-6.24292
-6.30429
-6.36425
-6.42267
-6.4795
-6.53449
-5.28416
-5.39027
-5.52559
-5.61908
-5.69337
-5.76991
-5.84581
-5.91737
-5.98591
-6.05293
-6.11865
-6.18291
-6.2457
-6.30702
-6.36685
-6.42508
-6.48166
-6.53617
-5.18671
-5.35399
-5.51769
-5.61088
-5.68699
-5.76779
-5.84569
-5.91785
-5.98692
-6.05446
-6.12048
-6.18489
-6.24771
-6.30902
-6.36878
-6.42691
-6.48341
-6.53772
-5.06727
-5.33107
-5.51406
-5.60026
-5.6796
-5.76519
-5.84457
-5.9171
-5.98668
-6.05468
-6.12098
-6.18554
-6.24846
-6.30982
-6.3696
-6.42777
-6.48441
-6.53937
-4.90938
-5.32231
-5.51956
-5.59241
-5.67397
-5.76368
-5.84391
-5.91636
-5.98604
-6.05413
-6.12041
-6.18491
-6.24776
-6.30901
-6.36867
-6.42668
-6.4832
-6.5394
-4.7691
-5.36592
-5.58522
-5.63575
-5.70641
-5.79209
-5.86935
-5.93946
-6.00745
-6.0742
-6.13933
-6.20281
-6.26476
-6.32523
-6.38414
-6.44137
-6.49636
-6.54824
-8.06998
-8.09401
-8.1011
-8.10219
-8.10353
-8.10574
-8.10841
-8.11138
-8.11469
-8.11836
-8.12242
-8.12687
-8.13175
-8.13705
-8.1428
-8.14898
-8.15563
-8.16272
-8.17029
-8.17831
-8.18682
-8.19577
-8.20521
-8.21509
-8.22545
-8.23624
-8.2475
-8.25918
-8.27131
-8.28384
-8.29682
-8.31017
-8.32394
-8.33806
-8.35258
-8.36742
-8.38264
-8.39814
-8.41399
-8.4301
-8.44653
-8.46318
-8.48012
-8.49725
-8.51463
-8.53216
-8.54992
-8.56779
-8.58584
-8.60397
-8.62224
-8.64054
-8.65895
-8.67734
-8.6958
-8.7142
-8.73262
-8.75094
-8.76923
-8.78736
-8.80541
-8.82326
-8.84098
-8.85844
-8.87571
-8.89265
-8.90935
-8.92564
-8.94164
-8.95717
-8.97233
-8.98694
-9.00112
-9.01467
-9.0277
-9.04
-9.05172
-9.06266
-9.07295
-9.08239
-9.09114
-9.09901
-9.10617
-9.11242
-9.11794
-9.12255
-9.12649
-9.1297
-9.13243
-9.13467
-9.13639
-9.13773
-9.13888
-9.14003
-9.14141
-9.14325
-9.14583
-9.14946
-9.15451
-9.16136
-9.17042
-9.18209
-9.19689
-9.21531
-9.23808
-9.26571
-9.29906
-9.33862
-9.38527
-9.43955
-9.50239
-9.57437
-9.65645
-9.74922
-9.85363
-9.97029
-10.1002
-10.2439
-10.4023
-10.5757
-10.7645
-10.9692
-11.1903
-11.4281
-11.6828
-11.9543
-12.2424
-12.5467
-12.8666
-13.2014
-13.55
-13.9116
-14.2848
-14.6682
-15.0603
-15.4597
-15.8644
-16.2728
-16.6828
-17.0927
-17.5005
-17.9042
-18.3021
-18.6923
-19.073
-19.4424
-19.7987
-20.1403
-20.4656
-20.7729
-21.0609
-21.328
-21.5729
-21.7941
-21.9905
-22.1606
-22.3035
-22.4179
-22.5028
-22.5571
-22.5797
-22.5693
-22.5247
-22.4439
-22.3251
-22.1661
-21.965
-21.7198
-21.428
-21.0869
-20.6929
-20.2409
-19.7221
-19.1258
-18.4524
-17.7349
-16.9904
-15.99
-14.1736
-11.9321
-8.03496
-8.0602
-8.06574
-8.06584
-8.06659
-8.06832
-8.07055
-8.07313
-8.0761
-8.07949
-8.08331
-8.08758
-8.0923
-8.09749
-8.10315
-8.10929
-8.11592
-8.12303
-8.13064
-8.13874
-8.14735
-8.15644
-8.16603
-8.17609
-8.18665
-8.19767
-8.20918
-8.22113
-8.23355
-8.2464
-8.25969
-8.27339
-8.2875
-8.30199
-8.31688
-8.33212
-8.34772
-8.36363
-8.37988
-8.39642
-8.41326
-8.43034
-8.4477
-8.46527
-8.48308
-8.50107
-8.51925
-8.53757
-8.55605
-8.57464
-8.59334
-8.61211
-8.63095
-8.64981
-8.6687
-8.68757
-8.70643
-8.72522
-8.74395
-8.76256
-8.78107
-8.7994
-8.81758
-8.83552
-8.85325
-8.87069
-8.88785
-8.90466
-8.92112
-8.93717
-8.9528
-8.96793
-8.98258
-8.99665
-9.01015
-9.02297
-9.03515
-9.04661
-9.05734
-9.06727
-9.07643
-9.08475
-9.09226
-9.0989
-9.10471
-9.10963
-9.11376
-9.11716
-9.11996
-9.1222
-9.12383
-9.12498
-9.12585
-9.12661
-9.12747
-9.12868
-9.13048
-9.13321
-9.1372
-9.14285
-9.15052
-9.16069
-9.17379
-9.19044
-9.21122
-9.23685
-9.26795
-9.30525
-9.34943
-9.40126
-9.46147
-9.53088
-9.61027
-9.70045
-9.80222
-9.9164
-10.0438
-10.1853
-10.3415
-10.513
-10.7
-10.9033
-11.1232
-11.3601
-11.6142
-11.8854
-12.1735
-12.478
-12.7985
-13.1341
-13.4838
-13.8466
-14.2213
-14.6064
-15.0005
-15.4018
-15.8087
-16.2193
-16.6317
-17.0439
-17.4541
-17.8604
-18.2609
-18.6536
-19.0367
-19.4085
-19.7672
-20.1111
-20.4387
-20.7484
-21.0386
-21.308
-21.5553
-21.779
-21.9779
-22.1509
-22.2966
-22.4138
-22.5015
-22.5584
-22.5833
-22.5749
-22.5318
-22.4526
-22.3356
-22.1791
-21.981
-21.7391
-21.451
-21.1139
-20.7245
-20.2779
-19.7661
-19.1794
-18.519
-17.814
-17.0772
-16.1324
-14.6225
-12.9182
-8.04287
-8.07043
-8.07695
-8.07738
-8.07838
-8.08031
-8.08269
-8.08537
-8.08843
-8.09188
-8.09576
-8.10006
-8.10482
-8.11003
-8.11571
-8.12186
-8.1285
-8.13561
-8.14322
-8.1513
-8.15989
-8.16895
-8.1785
-8.18852
-8.19903
-8.21
-8.22144
-8.23331
-8.24565
-8.25841
-8.2716
-8.28519
-8.29919
-8.31357
-8.32834
-8.34344
-8.35891
-8.37469
-8.3908
-8.40719
-8.42388
-8.44082
-8.45802
-8.47544
-8.49308
-8.51091
-8.52893
-8.5471
-8.56542
-8.58385
-8.60239
-8.621
-8.63967
-8.65838
-8.67711
-8.69583
-8.71453
-8.73318
-8.75175
-8.77022
-8.78858
-8.80678
-8.82481
-8.84263
-8.86022
-8.87755
-8.89459
-8.91129
-8.92765
-8.94361
-8.95914
-8.97421
-8.98878
-9.00279
-9.01622
-9.02901
-9.04115
-9.05257
-9.06327
-9.07319
-9.08233
-9.09065
-9.09815
-9.1048
-9.11059
-9.11553
-9.11965
-9.12304
-9.12584
-9.12804
-9.12964
-9.13075
-9.13156
-9.13225
-9.13303
-9.13412
-9.1358
-9.13838
-9.1422
-9.14765
-9.1551
-9.16502
-9.17784
-9.19423
-9.21471
-9.24007
-9.27085
-9.30788
-9.35173
-9.40331
-9.46323
-9.53244
-9.61163
-9.70173
-9.80343
-9.9177
-10.0453
-10.187
-10.3436
-10.5154
-10.7031
-10.9071
-11.1278
-11.3657
-11.6208
-11.8931
-12.1824
-12.4882
-12.8099
-13.1467
-13.4977
-13.8617
-14.2375
-14.6237
-15.0188
-15.421
-15.8287
-16.24
-16.653
-17.0658
-17.4764
-17.8829
-18.2836
-18.6764
-19.0595
-19.4312
-19.7896
-20.1332
-20.4602
-20.7693
-21.0589
-21.3277
-21.5742
-21.7973
-21.9957
-22.1682
-22.3136
-22.4307
-22.5182
-22.5749
-22.5995
-22.5908
-22.5474
-22.4679
-22.3507
-22.1942
-21.9963
-21.7547
-21.4671
-21.1307
-20.7422
-20.2972
-19.7882
-19.2067
-18.5535
-17.8479
-17.0845
-16.1286
-14.8256
-13.5354
-8.04695
-8.07526
-8.08165
-8.08192
-8.08289
-8.08486
-8.08729
-8.09006
-8.09321
-8.09676
-8.10075
-8.10516
-8.11004
-8.11537
-8.12118
-8.12745
-8.13422
-8.14145
-8.14918
-8.15739
-8.16609
-8.17525
-8.18491
-8.19504
-8.20564
-8.21669
-8.22821
-8.24016
-8.25256
-8.26537
-8.27861
-8.29224
-8.30628
-8.32069
-8.33547
-8.35059
-8.36607
-8.38185
-8.39795
-8.41433
-8.43101
-8.44793
-8.4651
-8.48249
-8.50011
-8.5179
-8.53588
-8.554
-8.57228
-8.59066
-8.60915
-8.62771
-8.64633
-8.66499
-8.68366
-8.70233
-8.72097
-8.73956
-8.75807
-8.77648
-8.79478
-8.81292
-8.83089
-8.84865
-8.86618
-8.88344
-8.90041
-8.91705
-8.93333
-8.94922
-8.96468
-8.97966
-8.99414
-9.00806
-9.02139
-9.03407
-9.04608
-9.05738
-9.06792
-9.07768
-9.08663
-9.09473
-9.10199
-9.10837
-9.11387
-9.11848
-9.12222
-9.12521
-9.12755
-9.12926
-9.13031
-9.13082
-9.131
-9.131
-9.13105
-9.13137
-9.13225
-9.13398
-9.13693
-9.14147
-9.148
-9.15696
-9.16888
-9.18433
-9.204
-9.2285
-9.25856
-9.29485
-9.33813
-9.38917
-9.44874
-9.51769
-9.59682
-9.68699
-9.78901
-9.90377
-10.0321
-10.1748
-10.3324
-10.5056
-10.6948
-10.9006
-11.1233
-11.3634
-11.6208
-11.8955
-12.1872
-12.4954
-12.8196
-13.1588
-13.5122
-13.8786
-14.2566
-14.6449
-15.0418
-15.4459
-15.8552
-16.2679
-16.6822
-17.096
-17.5076
-17.915
-18.3162
-18.7095
-19.093
-19.4649
-19.8234
-20.1669
-20.4938
-20.8026
-21.0918
-21.36
-21.6061
-21.8287
-22.0266
-22.1986
-22.3436
-22.4604
-22.5477
-22.6043
-22.6289
-22.6203
-22.577
-22.4978
-22.3811
-22.2252
-22.028
-21.7874
-21.5009
-21.166
-20.7795
-20.3372
-19.8325
-19.2585
-18.6162
-17.9169
-17.1419
-16.1908
-15.0302
-13.9519
-8.05331
-8.08291
-8.08948
-8.08972
-8.09073
-8.09276
-8.09526
-8.09809
-8.10131
-8.10495
-8.10902
-8.11353
-8.11851
-8.12393
-8.12984
-8.13621
-8.14307
-8.15041
-8.15823
-8.16652
-8.17531
-8.18455
-8.19428
-8.20447
-8.21513
-8.22623
-8.23779
-8.24977
-8.26219
-8.27502
-8.28827
-8.3019
-8.31593
-8.33032
-8.34508
-8.36017
-8.37561
-8.39135
-8.4074
-8.42373
-8.44035
-8.4572
-8.47431
-8.49163
-8.50917
-8.52689
-8.5448
-8.56284
-8.58104
-8.59934
-8.61775
-8.63623
-8.65478
-8.67336
-8.69196
-8.71055
-8.72912
-8.74764
-8.76609
-8.78444
-8.80268
-8.82077
-8.83868
-8.85639
-8.87388
-8.8911
-8.90803
-8.92463
-8.94088
-8.95674
-8.97216
-8.98711
-9.00155
-9.01543
-9.02871
-9.04134
-9.05328
-9.06449
-9.07493
-9.08456
-9.09336
-9.10128
-9.10832
-9.11444
-9.11963
-9.12389
-9.12723
-9.12974
-9.13154
-9.13262
-9.13299
-9.13274
-9.13207
-9.13115
-9.13019
-9.12943
-9.12915
-9.12966
-9.13133
-9.13449
-9.13964
-9.14714
-9.15767
-9.17168
-9.19
-9.21314
-9.24195
-9.27701
-9.31925
-9.36929
-9.42813
-9.49645
-9.57525
-9.66525
-9.76746
-9.88262
-10.0117
-10.1554
-10.3143
-10.489
-10.6802
-10.8881
-11.1133
-11.356
-11.6163
-11.894
-12.1887
-12.5001
-12.8274
-13.1698
-13.5263
-13.8956
-14.2765
-14.6674
-15.0669
-15.4733
-15.8847
-16.2993
-16.7153
-17.1306
-17.5434
-17.9518
-18.3539
-18.7479
-19.1319
-19.5041
-19.8628
-20.2063
-20.5331
-20.8416
-21.1305
-21.3984
-21.644
-21.866
-22.0634
-22.235
-22.3796
-22.4959
-22.583
-22.6393
-22.6639
-22.6553
-22.6123
-22.5335
-22.4175
-22.2624
-22.0664
-21.8271
-21.5423
-21.2094
-20.8255
-20.3865
-19.8869
-19.3211
-18.6899
-17.9991
-17.225
-16.2979
-15.2433
-14.2671
-8.06283
-8.09369
-8.1004
-8.10061
-8.10165
-8.10376
-8.10634
-8.10926
-8.11257
-8.11631
-8.12049
-8.12511
-8.13019
-8.13573
-8.14175
-8.14824
-8.15521
-8.16264
-8.17056
-8.17894
-8.1878
-8.19712
-8.20691
-8.21715
-8.22785
-8.23898
-8.25056
-8.26255
-8.27497
-8.28779
-8.30102
-8.31462
-8.3286
-8.34294
-8.35764
-8.37267
-8.38803
-8.40368
-8.41965
-8.43588
-8.4524
-8.46915
-8.48615
-8.50336
-8.52079
-8.53839
-8.55617
-8.5741
-8.59217
-8.61035
-8.62864
-8.647
-8.66542
-8.68388
-8.70237
-8.72085
-8.73931
-8.75772
-8.77607
-8.79432
-8.81246
-8.83045
-8.84828
-8.86591
-8.88332
-8.90047
-8.91734
-8.93388
-8.95008
-8.96588
-8.98125
-8.99615
-9.01054
-9.02437
-9.03759
-9.05015
-9.06202
-9.07314
-9.08348
-9.09299
-9.10163
-9.10937
-9.11618
-9.12203
-9.12691
-9.1308
-9.13371
-9.13573
-9.13694
-9.13736
-9.13697
-9.13588
-9.13427
-9.13233
-9.13025
-9.12829
-9.1267
-9.12583
-9.12602
-9.12766
-9.13117
-9.13708
-9.14593
-9.15837
-9.17504
-9.19667
-9.22395
-9.25765
-9.29858
-9.34754
-9.40541
-9.47306
-9.55137
-9.64122
-9.74353
-9.85919
-9.98903
-10.1338
-10.2941
-10.4706
-10.6639
-10.8743
-11.1023
-11.348
-11.6115
-11.8926
-12.1909
-12.5058
-12.8367
-13.1826
-13.5425
-13.9152
-14.2993
-14.6933
-15.0957
-15.5047
-15.9185
-16.3353
-16.7531
-17.17
-17.5843
-17.9938
-18.3969
-18.7916
-19.176
-19.5485
-19.9074
-20.2509
-20.5775
-20.8858
-21.1743
-21.4417
-21.6868
-21.9083
-22.1052
-22.2762
-22.4202
-22.5362
-22.6228
-22.6788
-22.7032
-22.6946
-22.6519
-22.5736
-22.4583
-22.3042
-22.1093
-21.8715
-21.5886
-21.258
-20.8768
-20.4414
-19.947
-19.389
-18.7677
-18.0847
-17.3175
-16.4202
-15.4401
-14.5133
-8.07551
-8.10766
-8.11448
-8.11463
-8.11572
-8.11789
-8.12055
-8.12354
-8.12695
-8.13078
-8.13506
-8.13978
-8.14497
-8.15061
-8.15673
-8.1633
-8.17036
-8.17787
-8.18586
-8.1943
-8.20322
-8.21258
-8.2224
-8.23265
-8.24336
-8.25448
-8.26604
-8.278
-8.29038
-8.30314
-8.31631
-8.32983
-8.34374
-8.35798
-8.37258
-8.38749
-8.40274
-8.41827
-8.43411
-8.45021
-8.46659
-8.4832
-8.50005
-8.51711
-8.53439
-8.55184
-8.56947
-8.58724
-8.60516
-8.62318
-8.64132
-8.65952
-8.6778
-8.69611
-8.71445
-8.73279
-8.75111
-8.76939
-8.78761
-8.80574
-8.82376
-8.84164
-8.85936
-8.87689
-8.89421
-8.91126
-8.92805
-8.94451
-8.96063
-8.97636
-8.99167
-9.0065
-9.02082
-9.03457
-9.04771
-9.06019
-9.07196
-9.08297
-9.09317
-9.10252
-9.11097
-9.11848
-9.12502
-9.13057
-9.13507
-9.13853
-9.14095
-9.14238
-9.14293
-9.14259
-9.14133
-9.13929
-9.13662
-9.13352
-9.13017
-9.12684
-9.12379
-9.12137
-9.11989
-9.11982
-9.12154
-9.12567
-9.13269
-9.14338
-9.15826
-9.17821
-9.20382
-9.23605
-9.27555
-9.32336
-9.3802
-9.44714
-9.52493
-9.61466
-9.71713
-9.83334
-9.96401
-10.11
-10.2719
-10.4504
-10.6459
-10.8591
-11.0901
-11.3391
-11.6061
-11.8908
-12.1929
-12.5116
-12.8463
-13.1961
-13.5597
-13.9361
-14.3236
-14.721
-15.1264
-15.5382
-15.9546
-16.3737
-16.7935
-17.2122
-17.628
-18.0388
-18.4428
-18.8382
-19.2232
-19.5961
-19.955
-20.2985
-20.6249
-20.9329
-21.221
-21.4879
-21.7324
-21.9534
-22.1497
-22.3201
-22.4636
-22.5791
-22.6653
-22.7211
-22.7453
-22.7367
-22.6943
-22.6166
-22.502
-22.3488
-22.1552
-21.9191
-21.6381
-21.3099
-20.9316
-20.5
-20.0107
-19.4599
-18.8471
-18.1714
-17.4136
-16.5443
-15.6124
-14.7074
-8.09162
-8.12511
-8.13204
-8.13211
-8.13323
-8.13547
-8.13818
-8.14124
-8.14471
-8.1486
-8.15295
-8.15774
-8.163
-8.1687
-8.17487
-8.18149
-8.18859
-8.19613
-8.20413
-8.21258
-8.22149
-8.23083
-8.24062
-8.25082
-8.26147
-8.27252
-8.284
-8.29587
-8.30814
-8.32079
-8.33383
-8.34722
-8.36098
-8.37508
-8.38952
-8.40427
-8.41935
-8.43471
-8.45037
-8.46628
-8.48248
-8.4989
-8.51557
-8.53244
-8.54952
-8.56678
-8.58422
-8.6018
-8.61953
-8.63737
-8.65532
-8.67334
-8.69144
-8.70958
-8.72775
-8.74592
-8.76409
-8.78221
-8.80028
-8.81827
-8.83616
-8.85391
-8.87152
-8.88893
-8.90614
-8.92311
-8.9398
-8.95618
-8.97222
-8.98788
-9.00311
-9.01787
-9.03212
-9.0458
-9.05886
-9.07125
-9.08292
-9.09381
-9.10387
-9.11305
-9.1213
-9.12857
-9.13482
-9.14002
-9.14412
-9.14711
-9.14898
-9.14979
-9.1496
-9.14842
-9.14622
-9.14312
-9.1393
-9.13492
-9.13019
-9.12535
-9.12071
-9.11656
-9.11331
-9.11133
-9.11116
-9.11331
-9.11843
-9.12715
-9.14019
-9.15826
-9.18217
-9.21273
-9.2508
-9.2973
-9.35314
-9.41926
-9.4966
-9.58615
-9.68883
-9.80555
-9.93713
-10.0843
-10.2479
-10.4284
-10.6264
-10.8424
-11.0765
-11.329
-11.5996
-11.8881
-12.194
-12.5167
-12.8554
-13.2091
-13.5766
-13.9566
-14.3478
-14.7485
-15.1571
-15.5718
-15.9908
-16.4123
-16.8342
-17.2548
-17.6721
-18.0842
-18.4893
-18.8854
-19.271
-19.6441
-20.0032
-20.3466
-20.6728
-20.9805
-21.2681
-21.5346
-21.7785
-21.9989
-22.1946
-22.3645
-22.5074
-22.6224
-22.7082
-22.7637
-22.7878
-22.7794
-22.7372
-22.6601
-22.5463
-22.3942
-22.2019
-21.9674
-21.6885
-21.3627
-20.9874
-20.5594
-20.0751
-19.5308
-18.9253
-18.2561
-17.5087
-16.6634
-15.7602
-14.8619
-8.11143
-8.14638
-8.15339
-8.15337
-8.15449
-8.15676
-8.15949
-8.16257
-8.16606
-8.16997
-8.17433
-8.17912
-8.18437
-8.19006
-8.19621
-8.20279
-8.20984
-8.21732
-8.22525
-8.23362
-8.24242
-8.25165
-8.26132
-8.27139
-8.28188
-8.29278
-8.30408
-8.31577
-8.32786
-8.34031
-8.35315
-8.36633
-8.37988
-8.39375
-8.40797
-8.4225
-8.43734
-8.45247
-8.4679
-8.48358
-8.49954
-8.51572
-8.53216
-8.54879
-8.56564
-8.58267
-8.59988
-8.61724
-8.63475
-8.65237
-8.6701
-8.68792
-8.70581
-8.72375
-8.74173
-8.75972
-8.7777
-8.79565
-8.81356
-8.83139
-8.84913
-8.86675
-8.88422
-8.90152
-8.91862
-8.93548
-8.95208
-8.96837
-8.98434
-8.99992
-9.01508
-9.02978
-9.04396
-9.05757
-9.07055
-9.08286
-9.09443
-9.1052
-9.11513
-9.12415
-9.13219
-9.13922
-9.14519
-9.15004
-9.15373
-9.15624
-9.15756
-9.15771
-9.15677
-9.15472
-9.15154
-9.14734
-9.14231
-9.13659
-9.13042
-9.12401
-9.11769
-9.11175
-9.10663
-9.10268
-9.10054
-9.10065
-9.10379
-9.11048
-9.12159
-9.13773
-9.15987
-9.18871
-9.22533
-9.27047
-9.32529
-9.39056
-9.46745
-9.55679
-9.65967
-9.77687
-9.90933
-10.0577
-10.2229
-10.4054
-10.6059
-10.8247
-11.062
-11.3177
-11.5919
-11.8841
-12.1939
-12.5205
-12.8631
-13.2207
-13.592
-13.9757
-14.3704
-14.7745
-15.1862
-15.6038
-16.0254
-16.4492
-16.8732
-17.2956
-17.7145
-18.1279
-18.5339
-18.9309
-19.3169
-19.6904
-20.0496
-20.3929
-20.719
-21.0263
-21.3136
-21.5795
-21.823
-22.0428
-22.2379
-22.4072
-22.5497
-22.6643
-22.7497
-22.805
-22.829
-22.8207
-22.7789
-22.7023
-22.5894
-22.4384
-22.2474
-22.0145
-21.7376
-21.4142
-21.0418
-20.6173
-20.1375
-19.599
-18.9997
-18.3365
-17.5987
-16.773
-15.8857
-14.9865
-8.13528
-8.17184
-8.17891
-8.17875
-8.17983
-8.18207
-8.18476
-8.18778
-8.1912
-8.19503
-8.19929
-8.20398
-8.20911
-8.21466
-8.22066
-8.22709
-8.23396
-8.24124
-8.24897
-8.25712
-8.2657
-8.27468
-8.2841
-8.29391
-8.30414
-8.31476
-8.32579
-8.33719
-8.34899
-8.36115
-8.37369
-8.38658
-8.39983
-8.41341
-8.42733
-8.44156
-8.45611
-8.47094
-8.48607
-8.50147
-8.51714
-8.53304
-8.5492
-8.56556
-8.58214
-8.5989
-8.61585
-8.63295
-8.6502
-8.66758
-8.68508
-8.70266
-8.72033
-8.73805
-8.75582
-8.7736
-8.79139
-8.80916
-8.82689
-8.84455
-8.86214
-8.8796
-8.89694
-8.91411
-8.9311
-8.94785
-8.96436
-8.98057
-8.99645
-9.01196
-9.02706
-9.04169
-9.05581
-9.06936
-9.08227
-9.09451
-9.10599
-9.11666
-9.12646
-9.13532
-9.14318
-9.14998
-9.15567
-9.16019
-9.16348
-9.16553
-9.16629
-9.16581
-9.16412
-9.16121
-9.15705
-9.15176
-9.14551
-9.13847
-9.13083
-9.12287
-9.11485
-9.10713
-9.10009
-9.09424
-9.09008
-9.08823
-9.08932
-9.09405
-9.10316
-9.11745
-9.13775
-9.16498
-9.20005
-9.24395
-9.29766
-9.36218
-9.43853
-9.52772
-9.6307
-9.74837
-9.88159
-10.0312
-10.1979
-10.3824
-10.5852
-10.8066
-11.0468
-11.3057
-11.5833
-11.879
-12.1924
-12.5227
-12.869
-13.2303
-13.6052
-13.9924
-14.3904
-14.7976
-15.2123
-15.6326
-16.0567
-16.4827
-16.9087
-17.3329
-17.7532
-18.1678
-18.5749
-18.9726
-19.3591
-19.7329
-20.0922
-20.4355
-20.7614
-21.0685
-21.3554
-21.6209
-21.8639
-22.0832
-22.2778
-22.4467
-22.5887
-22.7028
-22.788
-22.843
-22.867
-22.8589
-22.8176
-22.7416
-22.6295
-22.4795
-22.2899
-22.0586
-21.7835
-21.4624
-21.0927
-20.6715
-20.1957
-19.6621
-19.068
-18.41
-17.6804
-16.8699
-15.9905
-15.0874
-8.16355
-8.20197
-8.20909
-8.20871
-8.20967
-8.2118
-8.21433
-8.21716
-8.22036
-8.22395
-8.22796
-8.23236
-8.23719
-8.24243
-8.24809
-8.25416
-8.26067
-8.26758
-8.27493
-8.28267
-8.29085
-8.29943
-8.30844
-8.31784
-8.32766
-8.33786
-8.34848
-8.35947
-8.37087
-8.38262
-8.39477
-8.40726
-8.42012
-8.43332
-8.44686
-8.46072
-8.47491
-8.48939
-8.50417
-8.51923
-8.53456
-8.55014
-8.56597
-8.58202
-8.5983
-8.61477
-8.63143
-8.64825
-8.66523
-8.68234
-8.69958
-8.71692
-8.73435
-8.75184
-8.76938
-8.78695
-8.80454
-8.82212
-8.83967
-8.85716
-8.87458
-8.8919
-8.90911
-8.92615
-8.94302
-8.95968
-8.97609
-8.99222
-9.00803
-9.02348
-9.03852
-9.0531
-9.06716
-9.08066
-9.09352
-9.10569
-9.1171
-9.12769
-9.13738
-9.14611
-9.1538
-9.1604
-9.16583
-9.17004
-9.17297
-9.17458
-9.17484
-9.17374
-9.17135
-9.16761
-9.16251
-9.15618
-9.14876
-9.14044
-9.13141
-9.12193
-9.11227
-9.10283
-9.09397
-9.08627
-9.08018
-9.07644
-9.07556
-9.07841
-9.0856
-9.09812
-9.11667
-9.14235
-9.17597
-9.21868
-9.27134
-9.33515
-9.41099
-9.50001
-9.60305
-9.72112
-9.85501
-10.0057
-10.1738
-10.3601
-10.5649
-10.7887
-11.0316
-11.2934
-11.5739
-11.8729
-12.1895
-12.5232
-12.8728
-13.2374
-13.6156
-14.0059
-14.407
-14.817
-15.2344
-15.6571
-16.0835
-16.5115
-16.9393
-17.365
-17.7867
-18.2024
-18.6104
-19.0088
-19.3958
-19.7699
-20.1294
-20.4727
-20.7985
-21.1053
-21.3919
-21.6571
-21.8997
-22.1186
-22.3128
-22.4812
-22.6228
-22.7366
-22.8215
-22.8765
-22.9005
-22.8927
-22.8518
-22.7765
-22.6651
-22.5162
-22.3278
-22.098
-21.8247
-21.5057
-21.1384
-20.7201
-20.2478
-19.7184
-19.1286
-18.4749
-17.7513
-16.9521
-16.076
-15.1683
-8.19679
-8.23743
-8.24458
-8.24386
-8.24456
-8.24641
-8.2486
-8.25102
-8.25379
-8.2569
-8.26039
-8.26425
-8.26851
-8.27316
-8.27823
-8.28369
-8.28958
-8.29587
-8.30259
-8.30972
-8.31728
-8.32525
-8.33365
-8.34245
-8.35169
-8.36132
-8.37138
-8.38182
-8.39268
-8.40392
-8.41556
-8.42756
-8.43994
-8.45267
-8.46577
-8.47919
-8.49295
-8.50702
-8.52141
-8.53608
-8.55104
-8.56626
-8.58174
-8.59745
-8.6134
-8.62955
-8.64591
-8.66243
-8.67913
-8.69597
-8.71294
-8.73002
-8.74721
-8.76447
-8.78179
-8.79915
-8.81653
-8.83392
-8.85129
-8.86862
-8.88589
-8.90306
-8.92014
-8.93706
-8.95383
-8.97039
-8.98672
-9.00278
-9.01853
-9.03393
-9.04893
-9.06347
-9.0775
-9.09095
-9.10378
-9.11591
-9.12727
-9.13778
-9.14739
-9.15601
-9.16357
-9.16999
-9.17521
-9.17915
-9.18176
-9.18298
-9.18277
-9.18114
-9.17809
-9.17359
-9.16764
-9.16033
-9.15185
-9.14234
-9.13202
-9.12111
-9.10996
-9.09889
-9.0884
-9.07895
-9.07115
-9.0656
-9.063
-9.06404
-9.06956
-9.08038
-9.09743
-9.12164
-9.15403
-9.1956
-9.24742
-9.31053
-9.38598
-9.47479
-9.5779
-9.69626
-9.83078
-9.98233
-10.1517
-10.3395
-10.5462
-10.772
-11.0171
-11.2813
-11.5645
-11.8661
-12.1855
-12.522
-12.8745
-13.2419
-13.6229
-14.0159
-14.4196
-14.832
-15.2516
-15.6765
-16.1047
-16.5345
-16.9639
-17.391
-17.8138
-18.2305
-18.6393
-19.0383
-19.4258
-19.8001
-20.1597
-20.503
-20.8287
-21.1354
-21.4218
-21.6867
-21.929
-22.1475
-22.3413
-22.5094
-22.6508
-22.7643
-22.8491
-22.904
-22.9282
-22.9206
-22.8802
-22.8054
-22.6949
-22.5468
-22.3596
-22.1312
-21.8596
-21.5424
-21.1773
-20.7615
-20.292
-19.7658
-19.1795
-18.5293
-17.8098
-17.0184
-16.1431
-15.2316
-8.23579
-8.27919
-8.28633
-8.28507
-8.28528
-8.28658
-8.28811
-8.2898
-8.29176
-8.29401
-8.29661
-8.29955
-8.30287
-8.30656
-8.31067
-8.31517
-8.32011
-8.32546
-8.33127
-8.33749
-8.34418
-8.35129
-8.35887
-8.36687
-8.37534
-8.38423
-8.39357
-8.40332
-8.41352
-8.42412
-8.43515
-8.44657
-8.45839
-8.47059
-8.48317
-8.49609
-8.50938
-8.523
-8.53695
-8.5512
-8.56577
-8.5806
-8.59572
-8.61108
-8.62669
-8.64252
-8.65856
-8.67479
-8.69121
-8.70777
-8.72449
-8.74132
-8.75827
-8.7753
-8.79241
-8.80957
-8.82677
-8.84397
-8.86118
-8.87835
-8.89548
-8.91253
-8.92949
-8.94631
-8.96299
-8.97947
-8.99573
-9.01174
-9.02745
-9.04281
-9.05777
-9.07229
-9.0863
-9.09974
-9.11255
-9.12465
-9.13598
-9.14645
-9.156
-9.16454
-9.17199
-9.17827
-9.1833
-9.18702
-9.18935
-9.19023
-9.18964
-9.18752
-9.18391
-9.17874
-9.17202
-9.16386
-9.15444
-9.14389
-9.13243
-9.12028
-9.10782
-9.09535
-9.08343
-9.07249
-9.06322
-9.05613
-9.05204
-9.05157
-9.05568
-9.06508
-9.08087
-9.10387
-9.13525
-9.17591
-9.22705
-9.28961
-9.36476
-9.45339
-9.55657
-9.67515
-9.81019
-9.96248
-10.1329
-10.3219
-10.53
-10.7574
-11.0042
-11.2703
-11.5555
-11.8593
-12.1809
-12.5196
-12.8743
-13.244
-13.6271
-14.0223
-14.4279
-14.8423
-15.2637
-15.6902
-16.1199
-16.5511
-16.9817
-17.4099
-17.8336
-18.2511
-18.6605
-19.06
-19.4478
-19.8224
-20.1821
-20.5254
-20.8511
-21.1576
-21.4438
-21.7085
-21.9506
-22.1689
-22.3625
-22.5303
-22.6714
-22.7848
-22.8695
-22.9244
-22.9487
-22.9415
-22.9015
-22.8273
-22.7174
-22.5703
-22.384
-22.1568
-21.8865
-21.571
-21.2076
-20.7938
-20.3266
-19.8029
-19.2192
-18.5718
-17.8551
-17.0684
-16.193
-15.2791
-8.28174
-8.3287
-8.33573
-8.33359
-8.33291
-8.3332
-8.33356
-8.33397
-8.33457
-8.3354
-8.33654
-8.33801
-8.33985
-8.34209
-8.34476
-8.34786
-8.35143
-8.35547
-8.36
-8.36501
-8.37052
-8.37652
-8.38303
-8.39003
-8.39753
-8.4055
-8.41398
-8.42292
-8.43234
-8.4422
-8.45254
-8.46329
-8.4745
-8.4861
-8.49812
-8.51052
-8.52331
-8.53645
-8.54995
-8.56377
-8.57793
-8.59238
-8.60714
-8.62215
-8.63744
-8.65295
-8.66871
-8.68465
-8.7008
-8.71712
-8.73359
-8.7502
-8.76693
-8.78376
-8.80068
-8.81766
-8.83469
-8.85174
-8.8688
-8.88585
-8.90286
-8.9198
-8.93667
-8.95341
-8.97002
-8.98645
-9.00266
-9.01863
-9.03431
-9.04966
-9.06461
-9.07912
-9.09313
-9.10657
-9.11937
-9.13146
-9.14277
-9.15322
-9.16273
-9.1712
-9.17856
-9.18473
-9.18961
-9.19315
-9.19524
-9.19585
-9.19493
-9.19242
-9.18836
-9.18263
-9.17528
-9.16643
-9.15624
-9.14487
-9.13249
-9.11938
-9.10585
-9.09234
-9.07928
-9.06724
-9.05679
-9.04859
-9.04331
-9.04176
-9.04473
-9.05315
-9.06794
-9.09013
-9.12071
-9.16076
-9.21136
-9.27357
-9.34843
-9.43694
-9.5401
-9.65887
-9.79422
-9.94704
-10.1181
-10.3079
-10.517
-10.7455
-10.9935
-11.261
-11.5475
-11.8527
-12.1759
-12.5161
-12.8724
-13.2436
-13.6283
-14.0249
-14.4319
-14.8477
-15.2703
-15.6979
-16.1287
-16.5608
-16.9923
-17.4212
-17.8456
-18.2636
-18.6734
-19.0732
-19.4612
-19.8359
-20.1957
-20.5391
-20.8647
-21.1711
-21.4572
-21.7217
-21.9636
-22.1818
-22.3752
-22.5429
-22.6838
-22.7971
-22.8818
-22.9368
-22.9612
-22.9543
-22.9146
-22.8409
-22.7317
-22.5852
-22.3998
-22.1735
-21.9044
-21.59
-21.2281
-20.8157
-20.3502
-19.8284
-19.2467
-18.6014
-17.8866
-17.1026
-16.2272
-15.3132
-8.33659
-8.3882
-8.39498
-8.39136
-8.38907
-8.38757
-8.38594
-8.3842
-8.38256
-8.38112
-8.37998
-8.37919
-8.37883
-8.37893
-8.37955
-8.38069
-8.3824
-8.38467
-8.38753
-8.39097
-8.395
-8.39962
-8.40483
-8.41061
-8.41698
-8.4239
-8.43138
-8.4394
-8.44796
-8.45702
-8.46661
-8.47666
-8.48721
-8.49821
-8.50966
-8.52152
-8.53381
-8.54649
-8.55955
-8.57297
-8.58675
-8.60084
-8.61526
-8.62996
-8.64495
-8.66019
-8.67568
-8.69139
-8.70731
-8.72341
-8.73969
-8.75611
-8.77266
-8.78933
-8.8061
-8.82294
-8.83984
-8.85678
-8.87373
-8.89068
-8.90761
-8.92448
-8.94128
-8.95797
-8.97453
-8.99092
-9.00711
-9.02306
-9.03873
-9.05407
-9.06902
-9.08353
-9.09753
-9.11098
-9.12377
-9.13587
-9.14716
-9.15759
-9.16706
-9.17549
-9.18278
-9.18886
-9.19364
-9.19704
-9.19898
-9.19944
-9.19823
-9.19551
-9.19104
-9.18495
-9.17715
-9.16784
-9.15714
-9.1452
-9.13219
-9.11842
-9.10418
-9.08995
-9.07612
-9.06334
-9.05207
-9.04309
-9.03698
-9.03465
-9.03683
-9.04453
-9.0586
-9.08015
-9.11012
-9.14968
-9.19981
-9.26167
-9.33619
-9.4245
-9.52751
-9.64632
-9.78181
-9.93494
-10.1063
-10.2967
-10.5062
-10.7354
-10.9841
-11.2524
-11.5397
-11.8458
-12.1699
-12.511
-12.8683
-13.2404
-13.6259
-14.0234
-14.4313
-14.8478
-15.2711
-15.6995
-16.1309
-16.5636
-16.9955
-17.4248
-17.8495
-18.2678
-18.6779
-19.0778
-19.466
-19.8407
-20.2005
-20.5438
-20.8693
-21.1757
-21.4616
-21.726
-21.9678
-22.1858
-22.3791
-22.5466
-22.6875
-22.8007
-22.8854
-22.9404
-22.9651
-22.9583
-22.919
-22.8457
-22.7368
-22.5909
-22.4062
-22.1806
-21.9123
-21.5989
-21.238
-20.8269
-20.3627
-19.8423
-19.2619
-18.6179
-17.9043
-17.1215
-16.246
-15.3326
-8.40554
-8.46349
-8.46967
-8.46335
-8.45803
-8.45323
-8.44805
-8.44262
-8.43727
-8.43216
-8.42746
-8.42325
-8.41965
-8.41669
-8.41444
-8.4129
-8.41212
-8.41209
-8.41282
-8.41429
-8.41653
-8.41948
-8.42317
-8.42754
-8.43263
-8.43836
-8.44477
-8.45179