/*--------------------------------*- C++ -*----------------------------------*\
| =========                 |                                                 |
| \\      /  F ield         | OpenFOAM: The Open Source CFD Toolbox           |
|  \\    /   O peration     | Version:  2406                                  |
|   \\  /    A nd           | Website:  www.openfoam.com                      |
|    \\/     M anipulation  |                                                 |
\*---------------------------------------------------------------------------*/
FoamFile
{
    version     2.0;
    format      ascii;
    arch        "LSB;label=32;scalar=64";
    class       surfaceScalarField;
    location    "200";
    object      phi;
}
// * * * * * * * * * * * * * * * * * * * * * * * * * * * * * * * * * * * * * //

dimensions      [0 3 -1 0 0 0 0];

oriented        oriented;

internalField   nonuniform List<scalar> 
24170
(
3.13986e-06
4.85496e-08
3.10301e-06
3.6848e-08
3.07881e-06
2.42146e-08
3.05887e-06
1.99394e-08
3.0413e-06
1.75779e-08
3.02564e-06
1.56603e-08
3.0114e-06
1.42467e-08
2.99817e-06
1.32368e-08
2.98565e-06
1.25254e-08
2.97356e-06
1.20944e-08
2.96159e-06
1.19767e-08
2.94932e-06
1.22677e-08
2.93616e-06
1.3169e-08
2.92084e-06
1.53205e-08
2.90102e-06
1.98292e-08
2.86664e-06
3.43768e-08
2.7842e-06
8.24448e-08
1.48799e-07
2.63541e-06
3.41157e-06
5.42279e-08
3.38985e-06
5.85737e-08
3.36703e-06
4.7038e-08
3.34654e-06
4.04354e-08
3.32845e-06
3.56769e-08
3.31222e-06
3.18954e-08
3.29736e-06
2.91052e-08
3.28354e-06
2.7065e-08
3.27047e-06
2.55994e-08
3.25789e-06
2.46754e-08
3.24553e-06
2.43372e-08
3.23305e-06
2.47519e-08
3.22004e-06
2.61837e-08
3.20564e-06
2.97214e-08
3.18935e-06
3.61262e-08
3.16854e-06
5.51912e-08
3.15853e-06
9.24545e-08
1.78424e-07
3.12891e-06
3.6678e-06
4.89449e-08
3.66053e-06
6.58459e-08
3.64709e-06
6.04869e-08
3.63184e-06
5.56894e-08
3.61668e-06
5.08464e-08
3.60222e-06
4.63513e-08
3.58852e-06
4.28097e-08
3.57545e-06
4.01402e-08
3.56285e-06
3.82026e-08
3.55054e-06
3.69948e-08
3.53828e-06
3.66005e-08
3.52578e-06
3.72602e-08
3.51264e-06
3.93271e-08
3.49827e-06
4.40886e-08
3.48202e-06
5.23775e-08
3.46495e-06
7.22726e-08
3.45551e-06
1.01895e-07
1.70707e-07
3.46323e-06
3.9334e-06
4.09351e-08
3.93465e-06
6.45979e-08
3.92975e-06
6.53926e-08
3.92139e-06
6.40532e-08
3.91121e-06
6.10342e-08
3.90031e-06
5.72552e-08
3.88923e-06
5.39006e-08
3.87813e-06
5.12388e-08
3.86705e-06
4.92842e-08
3.85593e-06
4.81249e-08
3.84462e-06
4.79162e-08
3.83291e-06
4.89689e-08
3.82053e-06
5.17142e-08
3.80721e-06
5.74152e-08
3.79266e-06
6.69269e-08
3.77912e-06
8.58143e-08
3.76956e-06
1.11457e-07
1.59795e-07
3.78048e-06
4.21474e-06
3.33206e-08
4.21979e-06
5.95556e-08
4.22041e-06
6.47821e-08
4.21789e-06
6.65723e-08
4.21294e-06
6.59919e-08
4.20637e-06
6.38274e-08
4.19882e-06
6.14587e-08
4.19062e-06
5.94438e-08
4.18194e-06
5.7971e-08
4.17283e-06
5.72396e-08
4.16326e-06
5.74907e-08
4.15314e-06
5.90923e-08
4.14233e-06
6.25196e-08
4.13088e-06
6.88708e-08
4.1189e-06
7.89158e-08
4.10865e-06
9.60605e-08
4.10193e-06
1.18189e-07
1.51241e-07
4.11048e-06
4.51543e-06
2.69757e-08
4.52161e-06
5.33861e-08
4.52497e-06
6.14273e-08
4.52618e-06
6.53636e-08
4.5253e-06
6.68786e-08
4.52265e-06
6.64847e-08
4.51866e-06
6.54515e-08
4.51364e-06
6.44702e-08
4.50777e-06
6.38411e-08
4.50118e-06
6.38408e-08
4.4939e-06
6.47748e-08
4.48595e-06
6.70398e-08
4.47737e-06
7.11088e-08
4.46839e-06
7.78499e-08
4.45945e-06
8.78584e-08
4.45259e-06
1.0293e-07
4.44939e-06
1.21385e-07
1.44236e-07
4.4564e-06
4.83775e-06
2.19431e-08
4.84387e-06
4.72778e-08
4.84825e-06
5.70456e-08
4.85133e-06
6.22961e-08
4.85294e-06
6.5268e-08
4.85309e-06
6.63471e-08
4.85196e-06
6.65859e-08
4.84973e-06
6.66985e-08
4.84655e-06
6.70335e-08
4.8425e-06
6.78928e-08
4.83767e-06
6.96032e-08
4.83217e-06
7.25497e-08
4.82613e-06
7.71558e-08
4.81994e-06
8.40441e-08
4.81421e-06
9.35883e-08
4.81063e-06
1.06514e-07
4.81056e-06
1.21453e-07
1.37499e-07
4.8173e-06
5.1835e-06
1.80236e-08
5.18913e-06
4.16588e-08
5.19372e-06
5.24559e-08
5.1975e-06
5.85231e-08
5.20035e-06
6.2422e-08
5.20213e-06
6.45771e-08
5.20288e-06
6.58363e-08
5.2027e-06
6.68885e-08
5.20164e-06
6.81004e-08
5.19977e-06
6.97661e-08
5.19718e-06
7.21943e-08
5.19401e-06
7.57227e-08
5.19048e-06
8.06891e-08
5.18704e-06
8.74866e-08
5.18436e-06
9.62729e-08
5.18374e-06
1.07143e-07
5.18623e-06
1.18959e-07
1.30327e-07
5.19341e-06
5.55438e-06
1.49836e-08
5.5594e-06
3.66411e-08
5.56389e-06
4.79717e-08
5.56783e-06
5.45872e-08
5.57118e-06
5.90806e-08
5.57377e-06
6.19965e-08
5.57559e-06
6.40231e-08
5.57668e-06
6.58018e-08
5.57707e-06
6.7708e-08
5.57683e-06
7.00166e-08
5.57603e-06
7.2997e-08
5.57484e-06
7.69193e-08
5.57351e-06
8.20201e-08
5.5725e-06
8.85004e-08
5.57243e-06
9.63429e-08
5.57426e-06
1.05319e-07
5.57874e-06
1.14482e-07
1.22547e-07
5.58652e-06
5.95215e-06
1.26154e-08
5.95657e-06
3.22197e-08
5.96086e-06
4.36916e-08
5.96477e-06
5.06831e-08
5.96828e-06
5.55776e-08
5.97124e-06
5.90417e-08
5.97362e-06
6.16475e-08
5.97545e-06
6.39715e-08
5.97678e-06
6.63873e-08
5.97765e-06
6.91496e-08
5.97817e-06
7.24815e-08
5.97851e-06
7.65809e-08
5.97895e-06
8.1588e-08
5.9799e-06
8.75595e-08
5.98188e-06
9.43602e-08
5.98557e-06
1.01632e-07
5.99145e-06
1.08604e-07
1.14286e-07
5.99972e-06
6.37868e-06
1.07518e-08
6.38256e-06
2.83469e-08
6.38662e-06
3.9636e-08
6.39045e-06
4.68535e-08
6.39401e-06
5.20235e-08
6.39717e-06
5.58866e-08
6.39989e-06
5.89352e-08
6.4022e-06
6.16693e-08
6.40415e-06
6.4445e-08
6.40581e-06
6.74944e-08
6.4073e-06
7.09944e-08
6.40881e-06
7.50773e-08
6.4106e-06
7.98034e-08
6.41303e-06
8.5134e-08
6.41652e-06
9.08725e-08
6.42151e-06
9.66429e-08
6.42828e-06
1.0184e-07
1.05774e-07
6.43679e-06
5.74213e-06
9.45978e-09
5.74502e-06
2.54595e-08
5.74829e-06
3.63756e-08
5.75148e-06
4.36634e-08
5.75452e-06
4.89922e-08
5.75731e-06
5.30995e-08
5.75982e-06
5.6433e-08
5.76207e-06
5.94302e-08
5.7641e-06
6.24187e-08
5.76599e-06
6.56072e-08
5.76785e-06
6.91365e-08
5.76984e-06
7.30918e-08
5.77217e-06
7.74832e-08
5.77508e-06
8.22234e-08
5.77886e-06
8.70986e-08
5.78374e-06
9.17633e-08
5.78984e-06
9.57389e-08
9.85484e-08
5.79707e-06
6.9994e-06
8.21927e-09
7.00236e-06
2.25027e-08
7.0059e-06
3.28388e-08
7.00951e-06
4.00654e-08
7.01303e-06
4.54739e-08
7.01638e-06
4.97611e-08
7.01949e-06
5.33275e-08
7.02238e-06
5.65383e-08
7.02513e-06
5.96789e-08
7.02781e-06
6.29285e-08
7.03056e-06
6.63904e-08
7.03355e-06
7.01072e-08
7.03699e-06
7.40494e-08
7.04111e-06
7.81049e-08
7.04615e-06
8.20687e-08
7.05226e-06
8.56542e-08
7.05949e-06
8.85103e-08
9.03425e-08
7.0677e-06
8.53204e-06
7.02991e-09
8.53504e-06
1.95115e-08
8.53885e-06
2.90339e-08
8.5429e-06
3.60193e-08
8.54699e-06
4.13883e-08
8.55101e-06
4.57523e-08
8.55488e-06
4.94608e-08
8.55862e-06
5.2803e-08
8.56229e-06
5.60093e-08
8.566e-06
5.92224e-08
8.56989e-06
6.25106e-08
8.57412e-06
6.58824e-08
8.57889e-06
6.92856e-08
8.58439e-06
7.26058e-08
8.59079e-06
7.56701e-08
8.59818e-06
7.82656e-08
8.60654e-06
8.0158e-08
8.11929e-08
8.61569e-06
1.04004e-05
5.87694e-09
1.04034e-05
1.6484e-08
1.04075e-05
2.49433e-08
1.04121e-05
3.1454e-08
1.04169e-05
3.66144e-08
1.04217e-05
4.09067e-08
1.04266e-05
4.46209e-08
1.04314e-05
4.79721e-08
1.04363e-05
5.11286e-08
1.04413e-05
5.41922e-08
1.04466e-05
5.72017e-08
1.04524e-05
6.01435e-08
1.04587e-05
6.296e-08
1.04658e-05
6.55535e-08
1.04736e-05
6.77967e-08
1.04824e-05
6.95495e-08
1.04918e-05
7.06732e-08
7.11098e-08
1.05019e-05
1.26779e-05
4.72511e-09
1.26811e-05
1.33549e-08
1.26855e-05
2.04915e-08
1.26908e-05
2.6245e-08
1.26964e-05
3.09685e-08
1.27023e-05
3.49931e-08
1.27084e-05
3.85333e-08
1.27147e-05
4.17348e-08
1.27211e-05
4.47043e-08
1.27278e-05
4.7503e-08
1.27348e-05
5.01459e-08
1.27424e-05
5.26108e-08
1.27505e-05
5.48473e-08
1.27593e-05
5.6785e-08
1.27687e-05
5.83427e-08
1.27788e-05
5.94422e-08
1.27895e-05
6.00133e-08
6.00569e-08
1.28006e-05
1.54544e-05
3.51196e-09
1.54578e-05
9.97279e-09
1.54628e-05
1.5494e-08
1.54689e-05
2.01654e-08
1.54757e-05
2.41704e-08
1.5483e-05
2.76898e-08
1.54907e-05
3.08473e-08
1.54987e-05
3.37226e-08
1.5507e-05
3.63666e-08
1.55158e-05
3.88033e-08
1.55249e-05
4.10296e-08
1.55345e-05
4.30221e-08
1.55446e-05
4.47436e-08
1.55552e-05
4.6151e-08
1.55664e-05
4.72009e-08
1.5578e-05
4.78591e-08
1.55899e-05
4.80988e-08
4.79497e-08
1.5602e-05
1.8839e-05
2.13247e-09
1.88429e-05
6.0576e-09
1.88489e-05
9.58297e-09
1.88562e-05
1.28042e-08
1.88646e-05
1.5777e-08
1.88738e-05
1.85356e-08
1.88835e-05
2.11027e-08
1.88938e-05
2.34913e-08
1.89045e-05
2.57019e-08
1.89155e-05
2.7724e-08
1.8927e-05
2.95384e-08
1.89389e-05
3.1121e-08
1.89512e-05
3.24461e-08
1.89639e-05
3.349e-08
1.89769e-05
3.4234e-08
1.89901e-05
3.46688e-08
1.90034e-05
3.47905e-08
3.46369e-08
1.90167e-05
2.29651e-05
3.79322e-10
2.29701e-05
1.07296e-09
2.29776e-05
2.04921e-09
2.2987e-05
3.40808e-09
2.29978e-05
5.04555e-09
2.30095e-05
6.81922e-09
2.3022e-05
8.63957e-09
2.3035e-05
1.0449e-08
2.30485e-05
1.21947e-08
2.30624e-05
1.38274e-08
2.30767e-05
1.53086e-08
2.30912e-05
1.66084e-08
2.31059e-05
1.77051e-08
2.31209e-05
1.85829e-08
2.31359e-05
1.92344e-08
2.31509e-05
1.96594e-08
2.31658e-05
1.98633e-08
1.98782e-08
2.31806e-05
1.68122e-05
-1.1445e-09
1.68165e-05
-3.16539e-09
1.68227e-05
-4.19512e-09
1.68303e-05
-4.18361e-09
1.68388e-05
-3.466e-09
1.6848e-05
-2.35296e-09
1.68577e-05
-1.0065e-09
1.68677e-05
4.67206e-10
1.68779e-05
1.97088e-09
1.68883e-05
3.42598e-09
1.68988e-05
4.78048e-09
1.69095e-05
5.99906e-09
1.69201e-05
7.05852e-09
1.69308e-05
7.94383e-09
1.69413e-05
8.64949e-09
1.69518e-05
9.17675e-09
1.69622e-05
9.53146e-09
9.74013e-09
1.69723e-05
1.46362e-05
-2.78913e-09
1.46407e-05
-7.64683e-09
1.4647e-05
-1.05194e-08
1.46544e-05
-1.1575e-08
1.46625e-05
-1.15457e-08
1.46711e-05
-1.09113e-08
1.468e-05
-9.87421e-09
1.4689e-05
-8.58905e-09
1.46982e-05
-7.20141e-09
1.47075e-05
-5.8131e-09
1.47167e-05
-4.48457e-09
1.4726e-05
-3.25471e-09
1.47352e-05
-2.14978e-09
1.47443e-05
-1.1851e-09
1.47534e-05
-3.66984e-10
1.47622e-05
3.05839e-10
1.47709e-05
8.37657e-10
1.2499e-09
1.47794e-05
1.27421e-05
-4.70515e-09
1.2747e-05
-1.26224e-08
1.27536e-05
-1.70692e-08
1.27609e-05
-1.88392e-08
1.27686e-05
-1.92651e-08
1.27766e-05
-1.89272e-08
1.27848e-05
-1.80324e-08
1.2793e-05
-1.67997e-08
1.28012e-05
-1.54231e-08
1.28094e-05
-1.40153e-08
1.28176e-05
-1.26385e-08
1.28257e-05
-1.13339e-08
1.28337e-05
-1.013e-08
1.28415e-05
-9.04273e-09
1.28492e-05
-8.07873e-09
1.28568e-05
-7.23807e-09
1.28641e-05
-6.51727e-09
-5.90151e-09
1.28713e-05
1.10933e-05
-7.10315e-09
1.1099e-05
-1.83277e-08
1.11059e-05
-2.3888e-08
1.1113e-05
-2.59842e-08
1.11204e-05
-2.66574e-08
1.11279e-05
-2.64276e-08
1.11354e-05
-2.55028e-08
1.11428e-05
-2.41941e-08
1.11501e-05
-2.27291e-08
1.11573e-05
-2.12161e-08
1.11644e-05
-1.97148e-08
1.11713e-05
-1.82696e-08
1.11781e-05
-1.69103e-08
1.11847e-05
-1.5653e-08
1.11912e-05
-1.45051e-08
1.11974e-05
-1.34685e-08
1.12034e-05
-1.254e-08
-1.17145e-08
1.12093e-05
9.6584e-06
-1.02916e-08
9.66503e-06
-2.49504e-08
9.67207e-06
-3.09139e-08
9.67906e-06
-3.29684e-08
9.68608e-06
-3.36767e-08
9.69296e-06
-3.33056e-08
9.6996e-06
-3.2132e-08
9.70599e-06
-3.05767e-08
9.71214e-06
-2.88745e-08
9.71805e-06
-2.71207e-08
9.72371e-06
-2.5377e-08
9.72914e-06
-2.3692e-08
9.73433e-06
-2.20958e-08
9.73929e-06
-2.06048e-08
9.74401e-06
-1.92256e-08
9.74851e-06
-1.79613e-08
9.75278e-06
-1.68071e-08
-1.57683e-08
9.75684e-06
8.40975e-06
-1.46891e-08
8.41736e-06
-3.25506e-08
8.42439e-06
-3.79449e-08
8.43099e-06
-3.95634e-08
8.43724e-06
-3.99187e-08
8.44291e-06
-3.89651e-08
8.44796e-06
-3.71826e-08
8.45249e-06
-3.50966e-08
8.45654e-06
-3.29245e-08
8.46018e-06
-3.07497e-08
8.46344e-06
-2.86361e-08
8.46638e-06
-2.66291e-08
8.46904e-06
-2.47518e-08
8.47145e-06
-2.3013e-08
8.47365e-06
-2.14139e-08
8.47564e-06
-1.99519e-08
8.47745e-06
-1.86171e-08
-1.74172e-08
8.47911e-06
7.3234e-06
-2.08018e-08
7.33169e-06
-4.08361e-08
7.33807e-06
-4.4323e-08
7.34324e-06
-4.47236e-08
7.3472e-06
-4.38799e-08
7.3499e-06
-4.16584e-08
7.35157e-06
-3.88407e-08
7.35245e-06
-3.59798e-08
7.35276e-06
-3.32254e-08
7.35263e-06
-3.06212e-08
7.3522e-06
-2.82017e-08
7.35156e-06
-2.59826e-08
7.35077e-06
-2.39612e-08
7.34989e-06
-2.21276e-08
7.34895e-06
-2.04683e-08
7.34797e-06
-1.89684e-08
7.34697e-06
-1.76107e-08
-1.63886e-08
7.34594e-06
6.37834e-06
-2.90712e-08
6.38582e-06
-4.83191e-08
6.38929e-06
-4.77796e-08
6.39002e-06
-4.54548e-08
6.38855e-06
-4.2405e-08
6.3855e-06
-3.86062e-08
6.38154e-06
-3.48789e-08
6.37713e-06
-3.15595e-08
6.37252e-06
-2.86188e-08
6.36791e-06
-2.60011e-08
6.36339e-06
-2.36761e-08
6.35902e-06
-2.16135e-08
6.35484e-06
-1.97816e-08
6.35087e-06
-1.8152e-08
6.34711e-06
-1.6701e-08
6.34355e-06
-1.5404e-08
6.34018e-06
-1.42406e-08
-1.31706e-08
6.33696e-06
5.55521e-06
-3.88183e-08
5.5571e-06
-5.0204e-08
5.5523e-06
-4.29783e-08
5.54402e-06
-3.71695e-08
5.53417e-06
-3.25435e-08
5.52398e-06
-2.84201e-08
5.51411e-06
-2.50038e-08
5.50479e-06
-2.22324e-08
5.49609e-06
-1.99111e-08
5.48801e-06
-1.79195e-08
5.48053e-06
-1.61964e-08
5.47362e-06
-1.46974e-08
5.46723e-06
-1.33863e-08
5.46131e-06
-1.22343e-08
5.45583e-06
-1.12204e-08
5.45076e-06
-1.03262e-08
5.44605e-06
-9.53471e-09
-8.82976e-09
5.44172e-06
4.83287e-06
-4.40812e-08
4.81909e-06
-3.64168e-08
4.80004e-06
-2.3926e-08
4.78146e-06
-1.85848e-08
4.76476e-06
-1.58401e-08
4.75002e-06
-1.36753e-08
4.73696e-06
-1.19408e-08
4.72531e-06
-1.05711e-08
4.71484e-06
-9.43834e-09
4.70539e-06
-8.47023e-09
4.69683e-06
-7.63627e-09
4.68906e-06
-6.91569e-09
4.68196e-06
-6.28925e-09
4.67547e-06
-5.74187e-09
4.66952e-06
-5.26489e-09
4.66406e-06
-4.86098e-09
4.65908e-06
-4.55135e-09
-4.81285e-09
4.65506e-06
4.1586e-06
4.12218e-06
4.09825e-06
4.07967e-06
4.06383e-06
4.05015e-06
4.03821e-06
4.02764e-06
4.01821e-06
4.00974e-06
4.0021e-06
3.99519e-06
3.9889e-06
3.98316e-06
3.97789e-06
3.97303e-06
3.96848e-06
3.96367e-06
-1.82506e-08
1.82727e-08
-3.82005e-08
1.99677e-08
-5.86004e-08
2.0418e-08
-7.94526e-08
2.08711e-08
-1.00764e-07
2.13302e-08
-1.22511e-07
2.17681e-08
-1.44669e-07
2.21782e-08
-1.67211e-07
2.25629e-08
-1.90115e-07
2.2925e-08
-2.13359e-07
2.32662e-08
-2.36926e-07
2.35882e-08
-2.60795e-07
2.38922e-08
-2.84953e-07
2.41795e-08
-3.09381e-07
2.44508e-08
-3.34066e-07
2.47068e-08
-3.58991e-07
2.49475e-08
-3.84143e-07
2.51732e-08
-4.09504e-07
2.53838e-08
-4.35062e-07
2.55793e-08
-4.60798e-07
2.57594e-08
-4.867e-07
2.59242e-08
-5.12748e-07
2.60733e-08
-5.38931e-07
2.6207e-08
-5.65228e-07
2.63251e-08
-5.91629e-07
2.64278e-08
-6.18113e-07
2.6515e-08
-6.44671e-07
2.65874e-08
-6.71283e-07
2.66449e-08
-6.97939e-07
2.66883e-08
-7.24621e-07
2.67175e-08
-7.51322e-07
2.67334e-08
-7.78023e-07
2.67363e-08
-8.04717e-07
2.67268e-08
-8.31386e-07
2.67052e-08
-8.58026e-07
2.66723e-08
-8.84618e-07
2.66284e-08
-9.1116e-07
2.65742e-08
-9.37633e-07
2.65099e-08
-9.64037e-07
2.64363e-08
-9.90353e-07
2.63535e-08
-1.01658e-06
2.62623e-08
-1.04271e-06
2.61627e-08
-1.06873e-06
2.60555e-08
-1.09464e-06
2.59407e-08
-1.12043e-06
2.58189e-08
-1.14608e-06
2.56904e-08
-1.17161e-06
2.55555e-08
-1.19699e-06
2.54142e-08
-1.22222e-06
2.52672e-08
-1.2473e-06
2.51143e-08
-1.27222e-06
2.49556e-08
-1.29696e-06
2.47912e-08
-1.32154e-06
2.46211e-08
-1.34594e-06
2.44451e-08
-1.37015e-06
2.42632e-08
-1.39417e-06
2.40756e-08
-1.418e-06
2.38819e-08
-1.44161e-06
2.36821e-08
-1.46503e-06
2.34757e-08
-1.48823e-06
2.32634e-08
-1.51121e-06
2.30439e-08
-1.53396e-06
2.28177e-08
-1.55648e-06
2.25836e-08
-1.57875e-06
2.2343e-08
-1.60079e-06
2.20936e-08
-1.62255e-06
2.1837e-08
-1.64406e-06
2.15706e-08
-1.66528e-06
2.12962e-08
-1.68623e-06
2.10107e-08
-1.70688e-06
2.07165e-08
-1.72724e-06
2.04102e-08
-1.74726e-06
2.00946e-08
-1.76697e-06
1.97662e-08
-1.78633e-06
1.94284e-08
-1.80535e-06
1.90768e-08
-1.82398e-06
1.8716e-08
-1.84225e-06
1.83409e-08
-1.86011e-06
1.79559e-08
-1.8776e-06
1.75569e-08
-1.89465e-06
1.71513e-08
-1.91131e-06
1.67341e-08
-1.92753e-06
1.63124e-08
-1.94334e-06
1.58826e-08
-1.9587e-06
1.54558e-08
-1.97365e-06
1.5026e-08
-1.98815e-06
1.46051e-08
-2.00229e-06
1.41875e-08
-2.01603e-06
1.3789e-08
-2.02943e-06
1.34101e-08
-2.0425e-06
1.30592e-08
-2.05525e-06
1.27504e-08
-2.0677e-06
1.24856e-08
-2.07993e-06
1.22767e-08
-2.092e-06
1.21291e-08
-2.10398e-06
1.20566e-08
-2.11597e-06
1.20662e-08
-2.12804e-06
1.21725e-08
-2.1403e-06
1.23832e-08
-2.15287e-06
1.27121e-08
-2.16588e-06
1.31699e-08
-2.17945e-06
1.37682e-08
-2.19372e-06
1.45233e-08
-2.20887e-06
1.54372e-08
-2.22507e-06
1.65302e-08
-2.24253e-06
1.77891e-08
-2.26143e-06
1.92398e-08
-2.28201e-06
2.08614e-08
-2.30441e-06
2.26849e-08
-2.32888e-06
2.46843e-08
-2.35556e-06
2.68903e-08
-2.38468e-06
2.92691e-08
-2.41637e-06
3.18478e-08
-2.45086e-06
3.4585e-08
-2.48826e-06
3.75031e-08
-2.52878e-06
4.05532e-08
-2.57247e-06
4.37503e-08
-2.61951e-06
4.70383e-08
-2.66993e-06
5.04245e-08
-2.72382e-06
5.38547e-08
-2.78115e-06
5.7332e-08
-2.84192e-06
6.08046e-08
-2.90607e-06
6.42623e-08
-2.97361e-06
6.76378e-08
-3.04442e-06
7.09248e-08
-3.11845e-06
7.40527e-08
-3.19547e-06
7.70294e-08
-3.27535e-06
7.97913e-08
-3.35779e-06
8.23491e-08
-3.44261e-06
8.46463e-08
-3.52947e-06
8.66939e-08
-3.61814e-06
8.8446e-08
-3.70828e-06
8.99143e-08
-3.7996e-06
9.10656e-08
-3.89176e-06
9.19121e-08
-3.98445e-06
9.2433e-08
-4.07735e-06
9.26411e-08
-4.17013e-06
9.25283e-08
-4.26247e-06
9.21082e-08
-4.35408e-06
9.1384e-08
-4.44465e-06
9.0369e-08
-4.5339e-06
8.90731e-08
-4.62156e-06
8.75099e-08
-4.70738e-06
8.56934e-08
-4.79113e-06
8.36393e-08
-4.87259e-06
8.13639e-08
-4.95156e-06
7.88842e-08
-5.02785e-06
7.6217e-08
-5.1013e-06
7.33787e-08
-5.17175e-06
7.03851e-08
-5.23905e-06
6.725e-08
-5.30309e-06
6.39865e-08
-5.36374e-06
6.06048e-08
-5.42089e-06
5.71143e-08
-5.47445e-06
5.35217e-08
-5.52431e-06
4.98324e-08
-5.57038e-06
4.60485e-08
-5.61257e-06
4.21695e-08
-5.65077e-06
3.81883e-08
-5.68486e-06
3.40892e-08
-5.7147e-06
2.98401e-08
-5.74007e-06
2.53866e-08
-5.7607e-06
2.06411e-08
-5.77618e-06
1.54977e-08
-5.78602e-06
9.87825e-09
-5.78982e-06
3.83034e-09
-5.78773e-06
-2.05135e-09
-5.7801e-06
-7.57867e-09
-5.7668e-06
-1.32445e-08
-5.74748e-06
-1.92578e-08
-5.72169e-06
-2.57305e-08
-5.68885e-06
-3.27692e-08
-5.64826e-06
-4.05048e-08
-5.59904e-06
-4.91373e-08
-5.5398e-06
-5.91524e-08
-5.46775e-06
-7.19484e-08
-5.37739e-06
-9.02486e-08
-5.26226e-06
-1.15012e-07
-5.12283e-06
-1.39312e-07
-4.95027e-06
-1.72446e-07
-3.60092e-07
-4.5901e-06
-2.1531e-08
3.98242e-08
-4.22269e-08
4.06805e-08
-6.36584e-08
4.18668e-08
-8.57021e-08
4.29331e-08
-1.08272e-07
4.39184e-08
-1.31321e-07
4.48359e-08
-1.54814e-07
4.56905e-08
-1.78718e-07
4.64877e-08
-2.03007e-07
4.72335e-08
-2.27652e-07
4.79326e-08
-2.52632e-07
4.85892e-08
-2.77925e-07
4.92064e-08
-3.03511e-07
4.97867e-08
-3.2937e-07
5.03316e-08
-3.55486e-07
5.08425e-08
-3.81837e-07
5.132e-08
-4.08408e-07
5.17643e-08
-4.35178e-07
5.21757e-08
-4.62133e-07
5.2554e-08
-4.89251e-07
5.28991e-08
-5.16517e-07
5.3211e-08
-5.4391e-07
5.34896e-08
-5.71415e-07
5.37352e-08
-5.99013e-07
5.39477e-08
-6.26687e-07
5.41278e-08
-6.5442e-07
5.42759e-08
-6.82198e-07
5.43928e-08
-7.10001e-07
5.44791e-08
-7.37819e-07
5.45358e-08
-7.65633e-07
5.45639e-08
-7.93433e-07
5.45645e-08
-8.21202e-07
5.45385e-08
-8.48931e-07
5.44874e-08
-8.76604e-07
5.44118e-08
-9.04214e-07
5.43134e-08
-9.31745e-07
5.41928e-08
-9.59191e-07
5.40516e-08
-9.86537e-07
5.38903e-08
-1.01378e-06
5.37104e-08
-1.0409e-06
5.35124e-08
-1.06791e-06
5.32977e-08
-1.09478e-06
5.30666e-08
-1.12151e-06
5.28205e-08
-1.1481e-06
5.25595e-08
-1.17454e-06
5.2285e-08
-1.20081e-06
5.1997e-08
-1.22692e-06
5.16967e-08
-1.25286e-06
5.13839e-08
-1.27862e-06
5.10596e-08
-1.3042e-06
5.07236e-08
-1.32958e-06
5.03765e-08
-1.35477e-06
5.0018e-08
-1.37976e-06
4.96483e-08
-1.40454e-06
4.9267e-08
-1.4291e-06
4.88747e-08
-1.45345e-06
4.84706e-08
-1.47757e-06
4.80549e-08
-1.50146e-06
4.7627e-08
-1.52512e-06
4.71869e-08
-1.54853e-06
4.67339e-08
-1.57169e-06
4.62677e-08
-1.5946e-06
4.57874e-08
-1.61725e-06
4.52929e-08
-1.63963e-06
4.47833e-08
-1.66173e-06
4.42583e-08
-1.68354e-06
4.37167e-08
-1.70507e-06
4.31579e-08
-1.72629e-06
4.25809e-08
-1.7472e-06
4.19847e-08
-1.7678e-06
4.13687e-08
-1.78806e-06
4.07322e-08
-1.80799e-06
4.00747e-08
-1.82756e-06
3.93955e-08
-1.84677e-06
3.86948e-08
-1.8656e-06
3.79726e-08
-1.88405e-06
3.72289e-08
-1.9021e-06
3.64634e-08
-1.91975e-06
3.56777e-08
-1.937e-06
3.48738e-08
-1.95383e-06
3.40547e-08
-1.97024e-06
3.32226e-08
-1.98624e-06
3.23826e-08
-2.00182e-06
3.15397e-08
-2.01698e-06
3.07011e-08
-2.03175e-06
2.9872e-08
-2.04613e-06
2.90622e-08
-2.06016e-06
2.82802e-08
-2.07387e-06
2.754e-08
-2.08731e-06
2.68523e-08
-2.10049e-06
2.62366e-08
-2.11343e-06
2.57069e-08
-2.12619e-06
2.52813e-08
-2.13884e-06
2.49778e-08
-2.15146e-06
2.4814e-08
-2.16414e-06
2.48121e-08
-2.17698e-06
2.49913e-08
-2.19008e-06
2.53762e-08
-2.20357e-06
2.59865e-08
-2.21756e-06
2.68476e-08
-2.23221e-06
2.79797e-08
-2.24764e-06
2.94088e-08
-2.26404e-06
3.11565e-08
-2.28155e-06
3.32407e-08
-2.30039e-06
3.5678e-08
-2.32075e-06
3.84733e-08
-2.34286e-06
4.16418e-08
-2.3669e-06
4.51816e-08
-2.39308e-06
4.91094e-08
-2.4216e-06
5.34154e-08
-2.45264e-06
5.81104e-08
-2.48639e-06
6.31713e-08
-2.52302e-06
6.85997e-08
-2.56268e-06
7.43572e-08
-2.60554e-06
8.04345e-08
-2.65171e-06
8.67787e-08
-2.70129e-06
9.33673e-08
-2.75437e-06
1.00131e-07
-2.81099e-06
1.07033e-07
-2.87116e-06
1.14001e-07
-2.93482e-06
1.21001e-07
-3.00192e-06
1.27949e-07
-3.07235e-06
1.34796e-07
-3.14603e-06
1.41436e-07
-3.22284e-06
1.4782e-07
-3.30259e-06
1.53849e-07
-3.38507e-06
1.59496e-07
-3.47001e-06
1.64675e-07
-3.55713e-06
1.6937e-07
-3.64613e-06
1.73507e-07
-3.73668e-06
1.77079e-07
-3.82846e-06
1.8003e-07
-3.92111e-06
1.82364e-07
-4.01431e-06
1.84042e-07
-4.10771e-06
1.85078e-07
-4.20096e-06
1.85454e-07
-4.29374e-06
1.8519e-07
-4.38573e-06
1.84287e-07
-4.47661e-06
1.82772e-07
-4.56609e-06
1.80662e-07
-4.65389e-06
1.77986e-07
-4.73975e-06
1.74771e-07
-4.82343e-06
1.7105e-07
-4.9047e-06
1.66852e-07
-4.98338e-06
1.62213e-07
-5.05927e-06
1.57165e-07
-5.13221e-06
1.51744e-07
-5.20205e-06
1.45981e-07
-5.26864e-06
1.39909e-07
-5.33187e-06
1.33557e-07
-5.39163e-06
1.26952e-07
-5.4478e-06
1.20116e-07
-5.50031e-06
1.13069e-07
-5.54906e-06
1.05826e-07
-5.59397e-06
9.83988e-08
-5.63496e-06
9.07931e-08
-5.67194e-06
8.30113e-08
-5.70483e-06
7.50468e-08
-5.73354e-06
6.68887e-08
-5.75797e-06
5.85153e-08
-5.77803e-06
4.99027e-08
-5.79366e-06
4.10205e-08
-5.80485e-06
3.18491e-08
-5.81171e-06
2.23819e-08
-5.81444e-06
1.26395e-08
-5.81323e-06
2.65786e-09
-5.80757e-06
-7.66063e-09
-5.79661e-06
-1.84852e-08
-5.77988e-06
-2.99173e-08
-5.75696e-06
-4.21111e-08
-5.72737e-06
-5.52493e-08
-5.6905e-06
-6.95691e-08
-5.64555e-06
-8.53643e-08
-5.59153e-06
-1.03067e-07
-5.52708e-06
-1.23493e-07
-5.45024e-06
-1.48677e-07
-5.35812e-06
-1.82251e-07
-5.248e-06
-2.25003e-07
-5.11862e-06
-2.68546e-07
-4.95772e-06
-3.33225e-07
-5.72448e-07
-4.74527e-06
-2.12237e-08
6.10684e-08
-4.34171e-08
6.28908e-08
-6.6074e-08
6.4541e-08
-8.9205e-08
6.6082e-08
-1.12791e-07
6.75227e-08
-1.36806e-07
6.88701e-08
-1.61226e-07
7.01298e-08
-1.86026e-07
7.13082e-08
-2.11184e-07
7.24115e-08
-2.36676e-07
7.34454e-08
-2.62481e-07
7.44147e-08
-2.88576e-07
7.53232e-08
-3.14943e-07
7.61742e-08
-3.4156e-07
7.69697e-08
-3.68408e-07
7.77114e-08
-3.95468e-07
7.84003e-08
-4.2272e-07
7.90368e-08
-4.50145e-07
7.96214e-08
-4.77725e-07
8.0154e-08
-5.0544e-07
8.06349e-08
-5.33272e-07
8.10641e-08
-5.61202e-07
8.14419e-08
-5.89214e-07
8.17688e-08
-6.17287e-07
8.20454e-08
-6.45408e-07
8.22726e-08
-6.73556e-07
8.24513e-08
-7.01719e-07
8.25829e-08
-7.29879e-07
8.26687e-08
-7.58024e-07
8.27103e-08
-7.86138e-07
8.27093e-08
-8.1421e-07
8.26673e-08
-8.42225e-07
8.25863e-08
-8.70174e-07
8.24679e-08
-8.98044e-07
8.23139e-08
-9.25825e-07
8.21261e-08
-9.53505e-07
8.19061e-08
-9.81077e-07
8.16558e-08
-1.00853e-06
8.13767e-08
-1.03586e-06
8.10703e-08
-1.06305e-06
8.0738e-08
-1.0901e-06
8.03812e-08
-1.117e-06
8.00013e-08
-1.14375e-06
7.95994e-08
-1.17034e-06
7.91766e-08
-1.19675e-06
7.87339e-08
-1.223e-06
7.82723e-08
-1.24907e-06
7.77927e-08
-1.27495e-06
7.72955e-08
-1.30064e-06
7.67814e-08
-1.32613e-06
7.62509e-08
-1.35143e-06
7.57042e-08
-1.37652e-06
7.51414e-08
-1.40139e-06
7.45626e-08
-1.42605e-06
7.39677e-08
-1.45049e-06
7.33567e-08
-1.4747e-06
7.27292e-08
-1.49869e-06
7.20849e-08
-1.52243e-06
7.14234e-08
-1.54593e-06
7.07443e-08
-1.56919e-06
7.00468e-08
-1.59219e-06
6.93301e-08
-1.61494e-06
6.85935e-08
-1.63742e-06
6.78361e-08
-1.65963e-06
6.7057e-08
-1.68157e-06
6.62552e-08
-1.70321e-06
6.54295e-08
-1.72457e-06
6.45787e-08
-1.74563e-06
6.37016e-08
-1.76638e-06
6.27969e-08
-1.78682e-06
6.18636e-08
-1.80693e-06
6.09008e-08
-1.82671e-06
5.99078e-08
-1.84615e-06
5.88841e-08
-1.86523e-06
5.78298e-08
-1.88394e-06
5.6745e-08
-1.90228e-06
5.56303e-08
-1.92024e-06
5.44863e-08
-1.93781e-06
5.33153e-08
-1.95499e-06
5.21207e-08
-1.97178e-06
5.09065e-08
-1.98816e-06
4.96776e-08
-2.00415e-06
4.84409e-08
-2.01974e-06
4.72048e-08
-2.03495e-06
4.59791e-08
-2.04977e-06
4.47741e-08
-2.06424e-06
4.36038e-08
-2.07838e-06
4.24823e-08
-2.09222e-06
4.14285e-08
-2.10582e-06
4.04618e-08
-2.11918e-06
3.96054e-08
-2.13234e-06
3.88858e-08
-2.14535e-06
3.83297e-08
-2.15827e-06
3.79611e-08
-2.17119e-06
3.78126e-08
-2.18421e-06
3.79112e-08
-2.19741e-06
3.82926e-08
-2.21091e-06
3.89864e-08
-2.22482e-06
4.00292e-08
-2.23927e-06
4.14522e-08
-2.2544e-06
4.32908e-08
-2.27034e-06
4.55807e-08
-2.28728e-06
4.83492e-08
-2.30535e-06
5.16301e-08
-2.32479e-06
5.54312e-08
-2.34577e-06
5.97817e-08
-2.36851e-06
6.46764e-08
-2.39318e-06
7.01436e-08
-2.42002e-06
7.61707e-08
-2.44916e-06
8.27776e-08
-2.48082e-06
8.99369e-08
-2.51514e-06
9.76527e-08
-2.5523e-06
1.05879e-07
-2.59243e-06
1.146e-07
-2.63569e-06
1.23752e-07
-2.68214e-06
1.33298e-07
-2.73191e-06
1.43154e-07
-2.78502e-06
1.53257e-07
-2.84152e-06
1.63511e-07
-2.90138e-06
1.73846e-07
-2.96454e-06
1.84166e-07
-3.0309e-06
1.94384e-07
-3.10038e-06
2.04377e-07
-3.17286e-06
2.14041e-07
-3.24822e-06
2.23249e-07
-3.32624e-06
2.31919e-07
-3.40673e-06
2.39951e-07
-3.48939e-06
2.47282e-07
-3.57397e-06
2.53832e-07
-3.66015e-06
2.59552e-07
-3.74764e-06
2.64387e-07
-3.8361e-06
2.68303e-07
-3.92523e-06
2.71271e-07
-4.01469e-06
2.73278e-07
-4.10417e-06
2.74316e-07
-4.19334e-06
2.7439e-07
-4.28191e-06
2.73514e-07
-4.36956e-06
2.7171e-07
-4.45602e-06
2.69008e-07
-4.54101e-06
2.65445e-07
-4.62427e-06
2.61063e-07
-4.70556e-06
2.55904e-07
-4.78467e-06
2.50014e-07
-4.86138e-06
2.43441e-07
-4.93551e-06
2.36234e-07
-5.00688e-06
2.28443e-07
-5.07534e-06
2.20116e-07
-5.14074e-06
2.11302e-07
-5.20295e-06
2.02046e-07
-5.26186e-06
1.92392e-07
-5.31734e-06
1.82374e-07
-5.36931e-06
1.72029e-07
-5.41768e-06
1.61383e-07
-5.46236e-06
1.50459e-07
-5.50328e-06
1.39273e-07
-5.54037e-06
1.27838e-07
-5.57355e-06
1.16156e-07
-5.60276e-06
1.04228e-07
-5.62794e-06
9.20425e-08
-5.64902e-06
7.95833e-08
-5.66596e-06
6.68271e-08
-5.6787e-06
5.37488e-08
-5.68717e-06
4.03183e-08
-5.69129e-06
2.6504e-08
-5.6909e-06
1.22584e-08
-5.68573e-06
-2.49334e-09
-5.67543e-06
-1.79373e-08
-5.65966e-06
-3.42389e-08
-5.63804e-06
-5.15093e-08
-5.61017e-06
-6.99377e-08
-5.57561e-06
-8.97786e-08
-5.53377e-06
-1.1136e-07
-5.48399e-06
-1.35104e-07
-5.4254e-06
-1.61605e-07
-5.35688e-06
-1.9196e-07
-5.27688e-06
-2.28606e-07
-5.1838e-06
-2.75268e-07
-5.07664e-06
-3.32083e-07
-4.95186e-06
-3.93247e-07
-4.79708e-06
-4.87939e-07
-7.34266e-07
-4.63523e-06
-2.23912e-08
8.34799e-08
-4.53492e-08
8.58656e-08
-6.88577e-08
8.80666e-08
-9.28648e-08
9.01071e-08
-1.17331e-07
9.20068e-08
-1.42219e-07
9.37774e-08
-1.67498e-07
9.54275e-08
-1.93135e-07
9.69659e-08
-2.19105e-07
9.8401e-08
-2.45379e-07
9.97402e-08
-2.71933e-07
1.0099e-07
-2.98744e-07
1.02155e-07
-3.25788e-07
1.03239e-07
-3.53044e-07
1.04246e-07
-3.8049e-07
1.05178e-07
-4.08105e-07
1.06036e-07
-4.3587e-07
1.06821e-07
-4.63763e-07
1.07535e-07
-4.91766e-07
1.08177e-07
-5.19858e-07
1.08748e-07
-5.48023e-07
1.09249e-07
-5.7624e-07
1.0968e-07
-6.04493e-07
1.10043e-07
-6.32763e-07
1.10339e-07
-6.61037e-07
1.1057e-07
-6.89296e-07
1.10736e-07
-7.17527e-07
1.10841e-07
-7.45715e-07
1.10885e-07
-7.73849e-07
1.10873e-07
-8.01913e-07
1.10805e-07
-8.299e-07
1.10684e-07
-8.57794e-07
1.10513e-07
-8.8559e-07
1.10294e-07
-9.13273e-07
1.1003e-07
-9.40838e-07
1.09723e-07
-9.68274e-07
1.09375e-07
-9.95574e-07
1.08988e-07
-1.02273e-06
1.08566e-07
-1.04974e-06
1.08109e-07
-1.07658e-06
1.07619e-07
-1.10327e-06
1.07099e-07
-1.12979e-06
1.06551e-07
-1.15613e-06
1.05974e-07
-1.1823e-06
1.05372e-07
-1.20828e-06
1.04746e-07
-1.23407e-06
1.04095e-07
-1.25967e-06
1.03423e-07
-1.28507e-06
1.02728e-07
-1.31028e-06
1.02013e-07
-1.33527e-06
1.01277e-07
-1.36006e-06
1.00522e-07
-1.38463e-06
9.97462e-08
-1.40898e-06
9.8951e-08
-1.43311e-06
9.81362e-08
-1.45702e-06
9.73014e-08
-1.48069e-06
9.64464e-08
-1.50413e-06
9.55706e-08
-1.52733e-06
9.46735e-08
-1.55029e-06
9.37544e-08
-1.573e-06
9.28124e-08
-1.59546e-06
9.18464e-08
-1.61766e-06
9.08554e-08
-1.6396e-06
8.98381e-08
-1.66128e-06
8.87934e-08
-1.68268e-06
8.77198e-08
-1.7038e-06
8.66158e-08
-1.72464e-06
8.54797e-08
-1.74519e-06
8.431e-08
-1.76543e-06
8.31052e-08
-1.78538e-06
8.18639e-08
-1.80501e-06
8.0585e-08
-1.82432e-06
7.92676e-08
-1.84329e-06
7.79111e-08
-1.86193e-06
7.65157e-08
-1.88021e-06
7.50817e-08
-1.89813e-06
7.361e-08
-1.91569e-06
7.21022e-08
-1.93288e-06
7.05612e-08
-1.94968e-06
6.89915e-08
-1.96611e-06
6.73984e-08
-1.98216e-06
6.57888e-08
-1.99782e-06
6.41718e-08
-2.01311e-06
6.25583e-08
-2.02802e-06
6.09614e-08
-2.04256e-06
5.93958e-08
-2.05676e-06
5.78788e-08
-2.07065e-06
5.64313e-08
-2.08425e-06
5.50754e-08
-2.09761e-06
5.38382e-08
-2.11075e-06
5.27534e-08
-2.12368e-06
5.18507e-08
-2.13647e-06
5.1168e-08
-2.14917e-06
5.07398e-08
-2.16188e-06
5.06059e-08
-2.17468e-06
5.0806e-08
-2.18766e-06
5.13838e-08
-2.20093e-06
5.2382e-08
-2.2146e-06
5.38456e-08
-2.2288e-06
5.5819e-08
-2.24365e-06
5.83465e-08
-2.25931e-06
6.1475e-08
-2.27591e-06
6.52386e-08
-2.29364e-06
6.96767e-08
-2.31267e-06
7.48031e-08
-2.33321e-06
8.06487e-08
-2.35545e-06
8.72145e-08
-2.37956e-06
9.45291e-08
-2.40574e-06
1.0258e-07
-2.43414e-06
1.11385e-07
-2.46493e-06
1.20908e-07
-2.49828e-06
1.31148e-07
-2.53432e-06
1.42042e-07
-2.57318e-06
1.53566e-07
-2.61499e-06
1.6563e-07
-2.65982e-06
1.78184e-07