/*--------------------------------*- C++ -*----------------------------------*\
| =========                 |                                                 |
| \\      /  F ield         | OpenFOAM: The Open Source CFD Toolbox           |
|  \\    /   O peration     | Version:  2406                                  |
|   \\  /    A nd           | Website:  www.openfoam.com                      |
|    \\/     M anipulation  |                                                 |
\*---------------------------------------------------------------------------*/
FoamFile
{
    version     2.0;
    format      ascii;
    arch        "LSB;label=32;scalar=64";
    class       surfaceScalarField;
    location    "200";
    object      phi;
}
// * * * * * * * * * * * * * * * * * * * * * * * * * * * * * * * * * * * * * //

dimensions      [0 3 -1 0 0 0 0];

oriented        oriented;

internalField   nonuniform List<scalar> 
299000
(
0.0796644
0.0203356
0.0586793
0.0209851
0.0442549
0.0144243
0.0348023
0.00945262
0.0285005
0.00630179
0.0241904
0.00431011
0.0211389
0.00305152
0.0188895
0.00224932
0.0171658
0.00172376
0.0157998
0.00136599
0.0146871
0.00111264
0.0137605
0.000926624
0.0129748
0.00078567
0.0122989
0.000675937
0.0117103
0.000588548
0.0111927
0.000517617
0.0107336
0.000459118
0.0103234
0.00041021
0.00995455
0.000368841
0.00962106
0.000333489
0.00931805
0.000303008
0.00904153
0.000276515
0.0087882
0.000253325
0.00855531
0.000232894
0.00834052
0.000214789
0.00814185
0.000198659
0.00795763
0.000184218
0.0077864
0.000171232
0.00762689
0.000159506
0.00747801
0.000148875
0.00733881
0.000139204
0.00720843
0.000130376
0.00708613
0.000122292
0.00697126
0.000114868
0.00686323
0.000108031
0.00676151
0.000101718
0.00666564
9.58739e-05
0.00657518
9.04515e-05
0.00648977
8.54087e-05
0.00640906
8.07088e-05
0.00633274
7.63191e-05
0.00626053
7.2211e-05
0.00619216
6.83588e-05
0.00612742
6.47396e-05
0.00606609
6.1333e-05
0.00600797
5.81206e-05
0.00595288
5.50858e-05
0.00590066
5.22137e-05
0.00585117
4.94907e-05
0.00580426
4.69044e-05
0.00575982
4.44436e-05
0.00571772
4.20978e-05
0.00567786
3.98578e-05
0.00564014
3.77146e-05
0.00560448
3.56602e-05
0.00557079
3.36871e-05
0.005539
3.17883e-05
0.00550904
2.99571e-05
0.00548085
2.81874e-05
0.00545438
2.64732e-05
0.00542957
2.4809e-05
0.00540637
2.31894e-05
0.00538476
2.16092e-05
0.0053647
2.00632e-05
0.00534615
1.85466e-05
0.00532909
1.70543e-05
0.00531351
1.55814e-05
0.00529938
1.41229e-05
0.0052867
1.26737e-05
0.00527547
1.12283e-05
0.00526569
9.7812e-06
0.00525736
8.32641e-06
0.0052505
6.85759e-06
0.00524513
5.36761e-06
0.00524128
3.84887e-06
0.00523898
2.29255e-06
0.00523829
6.89014e-07
0.00523925
-9.73233e-07
0.00524196
-2.70715e-06
0.00524648
-4.52851e-06
0.00525293
-6.45556e-06
0.00526144
-8.51105e-06
0.00527215
-1.07222e-05
0.00528527
-1.31241e-05
0.00530103
-1.57602e-05
0.00531971
-1.86889e-05
0.00534169
-2.19883e-05
0.00536746
-2.577e-05
0.00539765
-3.01996e-05
0.00543318
-3.55415e-05
0.00547542
-4.22421e-05
0.00552652
-5.11064e-05
0.00559017
-6.36572e-05
0.00567306
-8.29048e-05
0.0057881
-0.000115045
0.00596124
-0.000173153
0.00624551
-0.000284276
0.00675068
-0.000505178
0.00775053
-0.000999872
-0.00236902
0.0101195
0.105208
0.0151278
0.100188
0.0260047
0.0901932
0.0244193
0.0797511
0.0198947
0.0705692
0.0154837
0.0629879
0.0118914
0.0568459
0.00919347
0.0518661
0.00722921
0.0477901
0.00579974
0.0444104
0.00474568
0.0415692
0.00395384
0.0391491
0.00334671
0.037063
0.00287176
0.0352457
0.00249323
0.0336478
0.00218643
0.0322313
0.00193406
0.0309667
0.00172371
0.0298306
0.00154636
0.0288041
0.00139529
0.0278722
0.00126543
0.0270223
0.00115289
0.0262441
0.00105465
0.0255291
0.000968321
0.02487
0.000892001
0.0242606
0.000824159
0.0236957
0.000763551
0.0231708
0.000709153
0.0226819
0.000660121
0.0222256
0.00061575
0.0217991
0.000575449
0.0213995
0.000538718
0.0210248
0.000505135
0.0206727
0.000474335
0.0203416
0.000446009
0.0200297
0.000419888
0.0197357
0.000395738
0.0194582
0.000373357
0.0191961
0.000352568
0.0189483
0.000333215
0.0187138
0.00031516
0.0184918
0.000298283
0.0182816
0.000282475
0.0180823
0.00026764
0.0178933
0.000253694
0.0177141
0.000240558
0.0175441
0.000228163
0.0173827
0.000216448
0.0172295
0.000205355
0.0170842
0.000194834
0.0169463
0.000184838
0.0168154
0.000175323
0.0166912
0.000166251
0.0165735
0.000157587
0.0164619
0.000149296
0.0163562
0.000141348
0.0162562
0.000133715
0.0161616
0.00012637
0.0160722
0.000119288
0.015988
0.000112446
0.0159086
0.00010582
0.015834
9.93903e-05
0.0157641
9.31361e-05
0.0156986
8.70376e-05
0.0156376
8.10758e-05
0.0155809
7.52318e-05
0.0155285
6.9487e-05
0.0154803
6.38227e-05
0.0154361
5.82203e-05
0.0153962
5.26603e-05
0.0153602
4.7123e-05
0.0153284
4.15875e-05
0.0153007
3.60318e-05
0.0152771
3.0432e-05
0.0152577
2.47625e-05
0.0152426
1.89947e-05
0.0152318
1.30969e-05
0.0152254
7.03296e-06
0.0152237
7.61833e-07
0.0152267
-5.76466e-06
0.0152348
-1.2603e-05
0.0152481
-1.98209e-05
0.0152671
-2.75003e-05
0.0152921
-3.57425e-05
0.0153236
-4.46741e-05
0.0153623
-5.44579e-05
0.0154089
-6.53067e-05
0.0154644
-7.75097e-05
0.0155301
-9.14707e-05
0.0156077
-0.00010778
0.0156994
-0.000127338
0.0158088
-0.000151584
0.0159406
-0.000182916
0.0161024
-0.000225487
0.0163061
-0.000286713
0.0165712
-0.000380125
0.0169286
-0.000530551
0.0174271
-0.000782863
0.0181409
-0.00121898
0.0191379
-0.00199694
-0.00335218
0.020121
0.105142
0.00998535
0.10894
0.0222068
0.107708
0.0256517
0.103025
0.0245779
0.0967876
0.0217209
0.090232
0.018447
0.0840073
0.0154182
0.0783754
0.012861
0.0733918
0.0107834
0.069019
0.00911851
0.0651863
0.00778645
0.0618181
0.00671499
0.0588443
0.00584551
0.0562049
0.00513267
0.0538493
0.00454201
0.0517358
0.00404755
0.0498299
0.00362956
0.0481033
0.00327303
0.0465321
0.0029664
0.0450969
0.00270066
0.043781
0.00246876
0.0425706
0.0022651
0.0414537
0.00208519
0.0404203
0.0019254
0.0394617
0.00178277
0.0385703
0.00165489
0.0377398
0.00153973
0.0369643
0.00143562
0.0362388
0.00134115
0.0355592
0.00125514
0.0349213
0.00117657
0.0343218
0.00110459
0.0337577
0.00103844
0.0332262
0.000977502
0.0327249
0.000921215
0.0322515
0.000869097
0.0318041
0.000820731
0.031381
0.000775745
0.0309804
0.000733816
0.0306009
0.000694657
0.0302411
0.000658013
0.0298999
0.000623658
0.0295762
0.000591389
0.0292688
0.000561025
0.028977
0.000532405
0.0286998
0.000505381
0.0284364
0.000479822
0.0281861
0.000455606
0.0279483
0.000432625
0.0277224
0.00041078
0.0275077
0.000389979
0.0273038
0.00037014
0.0271102
0.000351184
0.0269265
0.000333043
0.0267522
0.000315648
0.026587
0.000298941
0.0264305
0.000282863
0.0262824
0.00026736
0.0261424
0.000252383
0.0260104
0.000237884
0.0258859
0.000223816
0.0257689
0.000210137
0.0256592
0.000196804
0.0255564
0.000183776
0.0254607
0.000171012
0.0253717
0.000158474
0.0252894
0.000146122
0.0252137
0.000133915
0.0251445
0.000121813
0.0250818
0.000109773
0.0250257
9.77518e-05
0.024976
8.5703e-05
0.0249328
7.35765e-05
0.0248963
6.13184e-05
0.0248664
4.88693e-05
0.0248433
3.61631e-05
0.0248272
2.31251e-05
0.0248183
9.66985e-06
0.0248168
-4.30153e-06
0.0248231
-1.89056e-05
0.0248375
-3.42812e-05
0.0248606
-5.05965e-05
0.0248929
-6.80581e-05
0.0249352
-8.69246e-05
0.0249882
-0.000107526
0.0250532
-0.000130293
0.0251315
-0.000155801
0.0252248
-0.000184847
0.0253356
-0.000218562
0.0254668
-0.000258613
0.0256228
-0.000307543
0.0258092
-0.000369341
0.0260341
-0.000450438
0.0263087
-0.000561375
0.0266481
-0.00071955
0.027071
-0.000953398
0.027596
-0.00130792
0.0282277
-0.00185065
0.0289015
-0.00267083
-0.00382346
0.0293728
0.103312
0.0066732
0.108501
0.0170175
0.111575
0.0225784
0.111773
0.0243797
0.109658
0.0238357
0.106067
0.0220383
0.101734
0.019751
0.0971707
0.0174243
0.0926808
0.0152732
0.0884232
0.0133762
0.084467
0.0117426
0.0808308
0.0103513
0.077506
0.00917031
0.0744718
0.00816687
0.0717025
0.00731125
0.069172
0.0065781
0.0668551
0.0059464
0.0647292
0.00539896
0.0627738
0.00492182
0.0609708
0.00450361
0.0593044
0.00413511
0.0577608
0.00380875
0.0563276
0.00351832
0.0549943
0.00325872
0.0537514
0.00302569
0.0525906
0.00281567
0.0515046
0.0026257
0.050487
0.00245325
0.0495319
0.0022962
0.0486344
0.00215272
0.0477897
0.00202125
0.0469938
0.00190047
0.046243
0.0017892
0.0455341
0.00168645
0.0448639
0.00159133
0.04423
0.00150309
0.0436296
0.00142104
0.0430608
0.0013446
0.0425214
0.00127323
0.0420095
0.00120649
0.0415236
0.00114394
0.041062
0.00108522
0.0406234
0.00103001
0.0402064
0.000977992
0.0398099
0.000928913
0.0394328
0.000882528
0.039074
0.000838617
0.0387326
0.000796981
0.0384078
0.000757439
0.0380987
0.000719825
0.0378047
0.000683988
0.0375251
0.000649788
0.0372591
0.000617096
0.0370064
0.000585795
0.0367663
0.000555772
0.0365383
0.000526927
0.036322
0.000499162
0.0361169
0.000472388
0.0359228
0.000446519
0.0357392
0.000421475
0.0355658
0.000397179
0.0354024
0.000373558
0.0352487
0.00035054
0.0351044
0.000328057
0.0349693
0.00030604
0.0348434
0.000284424
0.0347264
0.000263141
0.0346181
0.000242125
0.0345186
0.000221307
0.0344278
0.000200617
0.0343455
0.000179982
0.0342719
0.000159325
0.0342069
0.000138564
0.0341506
0.000117609
0.0341031
9.63632e-05
0.0340645
7.47185e-05
0.0340351
5.2553e-05
0.034015
2.9728e-05
0.0340046
6.08349e-06
0.0340043
-1.85681e-05
0.0340144
-4.44493e-05
0.0340357
-7.18285e-05
0.0340686
-0.000101033
0.0341142
-0.000132472
0.0341733
-0.000166659
0.0342472
-0.000204261
0.0343376
-0.000246156
0.0344462
-0.000293529
0.0345757
-0.000348024
0.034729
-0.000411975
0.0349102
-0.000488784
0.0351244
-0.000583505
0.0353777
-0.000703764
0.0356774
-0.000861143
0.036031
-0.00107311
0.0364429
-0.00136532
0.0369083
-0.0017734
0.037399
-0.00234128
0.037837
-0.0031089
-0.00406877
0.0380823
0.102078
0.00459569
0.106348
0.0127472
0.110419
0.0185075
0.113047
0.0217517
0.113913
0.0229693
0.113198
0.0227533
0.111295
0.0216542
0.108616
0.0201035
0.105499
0.0183901
0.102189
0.0166856
0.0988507
0.0150812
0.0955845
0.0136175
0.0924491
0.0123056
0.0894749
0.0111411
0.086674
0.0101121
0.0840479
0.00920422
0.0815916
0.00840265
0.0792969
0.00769367
0.0771538
0.00706494
0.0751517
0.00650567
0.0732803
0.00600655
0.0715294
0.00555959
0.0698897
0.005158
0.0683525
0.00479596
0.0669096
0.00446852
0.0655539
0.00417144
0.0642785
0.0039011
0.0630773
0.00365436
0.061945
0.00342856
0.0608763
0.00322136
0.0598668
0.00303075
0.0589123
0.00285497
0.058009
0.00269251
0.0571534
0.00254201
0.0563425
0.0024023
0.0555732
0.00227235
0.054843
0.00215122
0.0541495
0.00203812
0.0534904
0.00193231
0.0528637
0.00183315
0.0522676
0.00174006
0.0517003
0.00165253
0.0511602
0.00157009
0.0506459
0.00149231
0.050156
0.00141883
0.0496892
0.00134929
0.0492444
0.00128338
0.0488206
0.00122082
0.0484167
0.00116134
0.0480318
0.00110471
0.0476651
0.00105071
0.0473157
0.000999139
0.046983
0.000949806
0.0466662
0.000902541
0.0463648
0.000857182
0.0460782
0.000813581
0.0458057
0.000771596
0.045547
0.000731096
0.0453016
0.000691955
0.045069
0.000654057
0.0448489
0.000617287
0.0446409
0.000581539
0.0444447
0.000546707
0.0442601
0.00051269
0.0440867
0.00047939
0.0439244
0.000446707
0.043773
0.000414545
0.0436323
0.000382805
0.0435023
0.000351388
0.0433827
0.000320191
0.0432735
0.000289108
0.0431748
0.000258027
0.0430866
0.00022683
0.0430088
0.000195388
0.0429416
0.000163561
0.0428851
0.000131195
0.0428395
9.81177e-05
0.0428051
6.41316e-05
0.0427821
2.90119e-05
0.0427711
-7.50372e-06
0.0427723
-4.57249e-05
0.0427865
-8.60219e-05
0.0428143
-0.000128844
0.0428566
-0.000174744
0.0429143
-0.000224415
0.0429888
-0.000278735
0.0430814
-0.000338845
0.0431941
-0.000406249
0.0433291
-0.000482971
0.0434889
-0.000571786
0.0436766
-0.000676557
0.0438958
-0.000802738
0.0441501
-0.000958064
0.0444424
-0.00115347
0.0447734
-0.00140414
0.0451383
-0.00173026
0.0455214
-0.00215644
0.0458877
-0.00270761
0.0461759
-0.00339717
-0.00420111
0.0463083
0.101292
0.00330346
0.104405
0.00963432
0.108105
0.014808
0.111406
0.0184504
0.113753
0.0206222
0.114948
0.0215585
0.115043
0.0215589
0.114225
0.0209218
0.112718
0.0198968
0.110734
0.0186699
0.108447
0.0173682
0.105991
0.0160732
0.103464
0.0148323
0.100935
0.0136707
0.0984479
0.0125991
0.0960329
0.0116192
0.0937077
0.0107279
0.0914819
0.00991948
0.0893598
0.00918704
0.087342
0.00852342
0.0854269
0.00792167
0.0836112
0.00737529
0.0818908
0.00687836
0.0802612
0.00642555
0.0787176
0.0060121
0.0772553
0.00563379
0.0758695
0.00528689
0.0745557
0.00496813
0.0733097
0.0046746
0.0721273
0.00440373
0.0710047
0.00415329
0.0699384
0.00392126
0.0689251
0.00370589
0.0679615
0.00350559
0.0670448
0.00331898
0.0661723
0.00314482
0.0653415
0.002982
0.0645501
0.00282952
0.0637959
0.0026865
0.0630769
0.00255214
0.0623913
0.00242572
0.0617372
0.00230658
0.0611131
0.00219415
0.0605176
0.00208789
0.0599491
0.00198731
0.0594064
0.00189198
0.0588883
0.00180149
0.0583936
0.00171547
0.0579213
0.00163359
0.0574705
0.00155554
0.0570402
0.00148102
0.0566295
0.00140978
0.0562378
0.00134157
0.0558642
0.00127616
0.055508
0.00121334
0.0551687
0.00115291
0.0548456
0.00109469
0.0545382
0.00103849
0.054246
0.000984156
0.0539685
0.000931527
0.0537053
0.000880452
0.0534561
0.000830785
0.0532204
0.000782388
0.0529979
0.000735124
0.0527885
0.000688861
0.0525917
0.000643466
0.0524074
0.000598809
0.0522355
0.000554759
0.0520757
0.000511182
0.0519279
0.000467942
0.0517921
0.000424897
0.0516682
0.0003819
0.0515562
0.000338792
0.0514562
0.000295405
0.0513682
0.000251555
0.0512924
0.000207041
0.0512288
0.000161638
0.0511779
0.000115092
0.0511397
6.71136e-05
0.0511149
1.73682e-05
0.0511037
-3.45358e-05
0.0511067
-8.90632e-05
0.0511246
-0.000146772
0.0511582
-0.000208341
0.0512084
-0.00027461
0.0512762
-0.000346625
0.0513631
-0.000425717
0.0514704
-0.000513599
0.0515999
-0.000612507
0.0517535
-0.000725398
0.0519332
-0.000856216
0.0521407
-0.00101025
0.0523772
-0.00119459
0.0526423
-0.00141859
0.0529324
-0.00169426
0.0532382
-0.00203606
0.0535412
-0.00245951
0.0538107
-0.00297705
0.0540031
-0.00358961
-0.0042728
0.0540748
0.100819
0.0024849
0.103016
0.00743714
0.105987
0.0118363
0.1091
0.0153379
0.111867
0.0178552
0.113986
0.0194394
0.115328
0.0202173
0.115895
0.0203546
0.115771
0.0200204
0.115077
0.0193643
0.113938
0.0185069
0.112472
0.0175393
0.110778
0.0165267
0.108935
0.0155132
0.107007
0.0145274
0.10504
0.0135862
0.103069
0.0126988
0.101119
0.0118693
0.0992079
0.0110981
0.0973477
0.0103837
0.095546
0.00972331
0.0938077
0.00911356
0.0921353
0.00855076
0.0905297
0.00803118
0.0889905
0.00755124
0.0875168
0.00710753
0.0861068
0.00669687
0.0847586
0.00631634
0.0834699
0.00596328
0.0822384
0.00563524
0.0810617
0.00533002
0.0799373
0.00504563
0.0788629
0.00478026
0.0778362
0.00453228
0.076855
0.00430023
0.075917
0.00408276
0.0750204
0.00387868
0.074163
0.00368689
0.0733431
0.00350642
0.0725588
0.00333635
0.0718087
0.00317588
0.071091
0.00302426
0.0704043
0.00288082
0.0697473
0.00274493
0.0691186
0.00261604
0.0685169
0.00249362
0.0679412
0.00237721
0.0673903
0.00226635
0.0668632
0.00216065
0.066359
0.00205973
0.0658768
0.00196325
0.0654157
0.00187089
0.0649749
0.00178235
0.0645537
0.00169734
0.0641514
0.00161562
0.0637674
0.00153693
0.063401
0.00146105
0.0630518
0.00138775
0.0627191
0.00131684
0.0624025
0.00124811
0.0621016
0.00118138
0.0618159
0.00111646
0.0615451
0.00105318
0.0612888
0.000991374
0.0610468
0.00093087
0.0608188
0.000871504
0.0606045
0.000813112
0.0604037
0.00075553
0.0602163
0.00069859
0.0600421
0.000642122
0.059881
0.000585949
0.059733
0.000529885
0.0595981
0.000473737
0.0594762
0.000417294
0.0593674
0.000360332
0.0592718
0.000302602
0.0591896
0.000243832
0.059121
0.000183713
0.0590662
0.000121897
0.0590256
5.79856e-05
0.0589995
-8.48503e-06
0.0589885
-7.80588e-05
0.0589931
-0.000151382
0.059014
-0.000229231
0.0590519
-0.000312548
0.0591077
-0.000402492
0.0591825
-0.000500501
0.0592773
-0.000608381
0.0593932
-0.000728419
0.0595313
-0.000863531
0.0596925
-0.00101745
0.0598772
-0.00119494
0.0600846
-0.00140205
0.0603122
-0.00164624
0.0605543
-0.00193635
0.0608003
-0.00228209
0.0610332
-0.00269241
0.0612285
-0.00317238
0.0613568
-0.00371784
-0.00430852
0.0613925
0.100541
0.00194404
0.102093
0.00588496
0.10437
0.00955949
0.106998
0.0127098
0.109632
0.0152214
0.112
0.0170714
0.113922
0.0182951
0.115309
0.0189676
0.116144
0.0191855
0.11646
0.0190483
0.116318
0.0186484
0.115793
0.0180648
0.114958
0.0173619
0.113882
0.0165891
0.112625
0.0157837
0.11124
0.014972
0.109766
0.0141725
0.108238
0.0133975
0.106681
0.0126545
0.105117
0.0119479
0.103561
0.0112797
0.102024
0.0106503
0.100515
0.0100592
0.0990416
0.00950503
0.0976068
0.00898603
0.0962141
0.00850028
0.0948652
0.00804573
0.0935612
0.00762032
0.0923025
0.00722205
0.0910887
0.00684897
0.0899195
0.00649925
0.088794
0.00617116
0.0877111
0.0058631
0.0866698
0.00557357
0.0856689
0.00530118
0.0847069
0.00504467
0.0837828
0.00480285
0.082895
0.00457465
0.0820424
0.00435906
0.0812235
0.00415516
0.0804373
0.00396211
0.0796824
0.00377913
0.0789577
0.00360551
0.0782621
0.00344057
0.0775944
0.00328372
0.0769536
0.00313438
0.0763388
0.00299204
0.0757489
0.0028562
0.0751832
0.00272643
0.0746406
0.00260229
0.0741204
0.0024834
0.0736219
0.0023694
0.0731443
0.00225995
0.072687
0.00215472
0.0722492
0.00205341
0.0718303
0.00195575
0.0714299
0.00186147
0.0710474
0.0017703
0.0706822
0.00168202
0.0703339
0.00159638
0.0700021
0.00151318
0.0696864
0.00143218
0.0693863
0.0013532
0.0691017
0.00127601
0.0688321
0.00120044
0.0685774
0.00112627
0.0683371
0.00105331
0.0681113
0.000981376
0.0678996
0.000910256
0.067702
0.000839752
0.0675183
0.000769652
0.0673484
0.000699738
0.0671924
0.00062978
0.0670501
0.000559531
0.0669217
0.000488725
0.0668072
0.000417076
0.0667068
0.000344264
0.0666206
0.000269936
0.0665487
0.000193693
0.0664916
0.000115084
0.0664496
3.35858e-05
0.0664229
-5.14045e-05
0.0664121
-0.000140596
0.0664177
-0.000234829
0.0664402
-0.000335107
0.0664804
-0.000442639
0.0665387
-0.000558894
0.066616
-0.00068567
0.0667127
-0.000825173
0.0668293
-0.000980121
0.0669657
-0.00115385
0.0671212
-0.00135044
0.0672939
-0.00157474
0.06748
-0.00183242
0.0676733
-0.00212965
0.0678637
-0.0024725
0.0680369
-0.00286561
0.0681745
-0.00331
0.0682566
-0.00379993
-0.00431962
0.0682677
0.100374
0.00156967
0.101489
0.00476999
0.103211
0.00783788
0.105328
0.010593
0.107615
0.0129341
0.109869
0.0148171
0.111927
0.0162371
0.113675
0.0172197
0.115049
0.0178121
0.116025
0.0180723
0.116612
0.0180612
0.116839
0.0178375
0.116747
0.0174535
0.116382
0.0169542
0.115789
0.0163765
0.115012
0.0157497
0.114088
0.0150966
0.113051
0.0144342
0.11193
0.0137751
0.11075
0.0131284
0.109529
0.0125003
0.108285
0.0118947
0.10703
0.0113142
0.105775
0.0107601
0.104528
0.0102328
0.103296
0.00973225
0.102084
0.0092578
0.100896
0.0088086
0.099734
0.00838363
0.0986012
0.00798173
0.0974987
0.00760171
0.0964275
0.00724236
0.0953882
0.00690246
0.0943809
0.00658087
0.0934056
0.00627644
0.0924621
0.00598811
0.0915502
0.00571484
0.0906691
0.00545569
0.0898184
0.00520973
0.0889975
0.00497612
0.0882055
0.00475406
0.0874418
0.00454279
0.0867057
0.00434162
0.0859964
0.0041499
0.0853131
0.00396701
0.0846551
0.00379239
0.0840216
0.00362549
0.083412
0.00346581
0.0828255
0.00331289
0.0822615
0.00316629
0.0817193
0.0030256
0.0811983
0.00289042
0.0806979
0.00276038
0.0802174
0.00263516
0.0797564
0.0025144
0.0793144
0.00239782
0.0788907
0.00228511
0.078485
0.00217598
0.0780969
0.00207019
0.0777258
0.00196745
0.0773714
0.00186753
0.0770334
0.00177019
0.0767114
0.00167518
0.0764051
0.00158229
0.0761143
0.00149128
0.0758386
0.00140193
0.0755779
0.00131403
0.0753319
0.00122733
0.0751006
0.00114162
0.0748836
0.00105667
0.0746811
0.000972236
0.0744927
0.000888066
0.0743186
0.000803899
0.0741587
0.000719458
0.0740129
0.000634443
0.0738815
0.000548531
0.0737644
0.000461367
0.0736617
0.00037256
0.0735737
0.000281671
0.0735006
0.000188207
0.0734426
9.16063e-05
0.0733999
-8.775e-06
0.073373
-0.000113683
0.0733621
-0.000223988
0.0733677
-0.000340713
0.0733901
-0.000465065
0.0734297
-0.000598481
0.0734867
-0.00074267
0.0735612
-0.00089967
0.073653
-0.0010719
0.0737613
-0.00126223
0.0738848
-0.00147398
0.074021
-0.00171091
0.0741657
-0.00197711
0.0743127
-0.00227667
0.0744533
-0.0026131
0.074576
-0.00298836
0.0746674
-0.00340138
0.0747138
-0.00384637
-0.00431128
0.0747054
0.10027
0.00129941
0.10109
0.00394985
0.102398
0.00653048
0.104073
0.00891735
0.105977
0.0110306
0.107968
0.0128262
0.10992
0.0142853
0.111729
0.0154105
0.11332
0.0162208
0.114646
0.0167464
0.115683
0.0170237
0.11643
0.0170912
0.116896
0.016987
0.117104
0.0167463
0.11708
0.0164005
0.116853
0.0159766
0.116453
0.0154973
0.115906
0.014981
0.115238
0.0144425
0.114473
0.0138933
0.113631
0.0133425
0.112729
0.0127967
0.111782
0.0122609
0.110804
0.0117387
0.109804
0.0112327
0.108792
0.0107443
0.107775
0.0102745
0.10676
0.00982381
0.105751
0.00939231
0.104753
0.00897978
0.103769
0.00858581
0.102802
0.00820987
0.101853
0.00785132
0.100924
0.00750945
0.100017
0.00718353
0.0991324
0.00687281
0.0982707
0.00657653
0.0974325
0.00629396
0.0966178
0.00602437
0.0958269
0.00576705
0.0950596
0.00552132
0.0943159
0.00528654
0.0935954
0.00506208
0.092898
0.00484735
0.0922232
0.00464179
0.0915707
0.00444486
0.0909401
0.00425605
0.090331
0.00407489
0.089743
0.00390091
0.0891756
0.00373367
0.0886285
0.00357278
0.088101
0.00341784
0.0875929
0.00326847
0.0871038
0.00312433
0.0866331
0.00298507
0.0861805
0.00285038
0.0857457
0.00271993
0.0853282
0.00259345
0.0849278
0.00247064
0.084544
0.00235123
0.0841766
0.00223495
0.0838252
0.00212154
0.0834896
0.00201074
0.0831696
0.00190232
0.0828649
0.00179601
0.0825752
0.00169158
0.0823005
0.00158878
0.0820404
0.00148736
0.081795
0.00138708
0.0815639
0.00128768
0.0813473
0.00118889
0.0811449
0.00109044
0.0809568
0.00099204
0.0807828
0.000893389
0.0806231
0.000794158
0.0804776
0.000693997
0.0803464
0.000592523
0.0802297
0.000489315
0.0801274
0.000383908
0.0800399
0.000275783
0.0799671
0.000164352
0.0799094
4.89527e-05
0.0798668
-7.11739e-05
0.0798397
-0.000196899
0.0798282
-0.000329229
0.0798325
-0.000469329
0.0798525
-0.000618552
0.0798883
-0.000778469
0.0799395
-0.000950897
0.0800055
-0.00113792
0.0800852
-0.00134191
0.0801767
-0.00156548
0.0802772
-0.00181143
0.0803827
-0.0020826
0.0804875
-0.00238154
0.0805845
-0.00271004
0.0806645
-0.00306844
0.0807179
-0.00345475
0.0807352
-0.00386368
-0.00428602
0.0807099
0.100202
0.00109708
0.100821
0.0033309
0.101827
0.00552475
0.103152
0.00759264
0.104708
0.0094742
0.106403
0.0111315
0.108145
0.0125435
0.109852
0.0137035
0.111456
0.0146165
0.112906
0.0152966
0.114166
0.0157639
0.115215
0.0160419
0.116046
0.016156
0.116661
0.0161312
0.11707
0.0159917
0.117287
0.0157596
0.11733
0.0154544
0.117217
0.0150934
0.116969
0.014691
0.116602
0.0142595
0.116136
0.0138088
0.115586
0.0133472
0.114965
0.0128812
0.114288
0.0124158
0.113566
0.011955
0.112808
0.011502
0.112024
0.0110589
0.11122
0.0106274
0.110404
0.0102086
0.10958
0.00980332
0.108754
0.00941192
0.107929
0.00903459
0.107109
0.00867132
0.106297
0.00832196
0.105494
0.00798623
0.104703
0.00766378
0.103926
0.00735422
0.103162
0.00705709
0.102415
0.00677191
0.101684
0.00649821
0.10097
0.00623549
0.100273
0.00598325
0.099594
0.005741
0.098933
0.00550826
0.0982903
0.00528456
0.0976657
0.00506944
0.0970593
0.00486246
0.096471
0.0046632
0.0959006
0.00447122
0.0953482
0.00428615
0.0948133
0.00410759
0.094296
0.00393517
0.0937959
0.00376854
0.0933129
0.00360735
0.0928467
0.00345129
0.0923971
0.00330001
0.0919637
0.00315323
0.0915466
0.00301064
0.0911452
0.00287195
0.0907596
0.00273689
0.0903894
0.00260516
0.0900344
0.00247652
0.0896944
0.00235069
0.0893693
0.00222741
0.0890589
0.00210642
0.088763
0.00198746
0.0884815
0.00187028
0.0882143
0.0017546
0.0879612
0.00164017
0.0877221
0.00152671
0.0874971
0.00141394
0.0872859
0.00130157
0.0870887
0.00118928
0.0869053
0.00107676
0.0867358
0.000963659
0.0865802
0.000849605
0.0864385
0.000734198
0.0863108
0.000616999
0.0861972
0.000497528
0.0860977
0.000375251
0.0860125
0.000249574
0.0859416
0.000119832
0.0858851
-1.47253e-05
0.0858432
-0.000154945
0.0858157
-0.000301789
0.0858027
-0.00045635
0.085804
-0.000619866
0.0858193
-0.000793739
0.0858479
-0.000979543
0.085889
-0.00117902
0.0859411
-0.00139407
0.0860024
-0.0016267
0.0860698
-0.00187892
0.0861398
-0.0021526
0.0862074
-0.00244918
0.0862667
-0.00276935
0.0863109
-0.00311257
0.0863326
-0.00347648
0.0863254
-0.00385648
-0.00424544
0.0862848
0.100156
0.000940878
0.100635
0.00285206
0.101422
0.00473807
0.102476
0.00653793
0.103744
0.00820628
0.105164
0.00971227
0.106671
0.0110365
0.108205
0.0121695
0.109711
0.0131102
0.111143
0.0138642
0.112465
0.0144419
0.11365
0.0148571
0.11468
0.0151257
0.115547
0.0152647
0.116247
0.0152912
0.116785
0.0152219
0.117167
0.0150724
0.117404
0.0148571
0.117506
0.0145887
0.117487
0.0142786
0.117359
0.0139366
0.117135
0.0135709
0.116828
0.0131887
0.116448
0.0127957
0.116006
0.012397
0.115512
0.0119963
0.114974
0.0115969
0.1144
0.0112013
0.113797
0.0108115
0.113171
0.010429
0.112528
0.010055
0.111872
0.00969033
0.111208
0.00933558
0.110539
0.00899112
0.109868
0.00865717
0.109198
0.0083338
0.108531
0.00802098
0.10787
0.0077186
0.107215
0.00742647
0.106569
0.00714437
0.105932
0.00687203
0.105307
0.00660914
0.104692
0.00635538
0.10409
0.00611043
0.103501
0.00587393
0.102925
0.00564555
0.102362
0.00542494
0.101813
0.00521174
0.101279
0.00500563
0.100759
0.00480625
0.100253
0.00461327
0.0997621
0.00442638
0.0992853
0.00424525
0.0988231
0.00406958
0.0983754
0.00389904
0.097942
0.00373335
0.097523
0.00357222
0.0971183
0.00341536
0.0967278
0.00326249
0.0963513
0.00311332
0.0959889
0.00296761
0.0956403
0.00282506
0.0953056
0.00268543
0.0949845
0.00254844
0.0946771
0.00241383
0.0943832
0.00228134
0.0941028
0.0021507
0.0938358
0.00202164
0.093582
0.00189388
0.0933416
0.00176715
0.0931144
0.00164114
0.0929004
0.00151555
0.0926996
0.00139007
0.092512
0.00126436
0.0923376
0.00113806
0.0921764
0.00101079
0.0920285
0.000882136
0.0918938
0.00075166
0.0917724
0.000618871
0.0916645
0.000483238
0.0915698
0.000344172
0.0914886
0.000201021
0.0914208
5.30637e-05
0.0913664
-0.000100506
0.0913252
-0.000260586
0.091297
-0.000428175
0.0912815
-0.000604381
0.0912782
-0.000790423
0.0912862
-0.000987632
0.0913046
-0.00119743
0.0913318
-0.0014213
0.0913659
-0.00166073
0.091404
-0.0019171
0.091443
-0.00219156
0.0914786
-0.00248482
0.0915061
-0.00279687
0.0915202
-0.00312669
0.0915156
-0.0034719
0.0914877
-0.00382856
-0.00419109
0.0914333
0.100124
0.000817156
0.100503
0.00247313
0.101129
0.00411172
0.101978
0.00568855
0.103015
0.00716921
0.104199
0.00852894
0.105484
0.00975103
0.106828
0.0108259
0.108188
0.0117501
0.109527
0.012525
0.110813
0.0131558
0.11202
0.0136504
0.113127
0.0140186
0.11412
0.0142716
0.11499
0.014421
0.115733
0.014479
0.116348
0.0144571
0.116839
0.0143667
0.117209
0.0142181
0.117467
0.014021
0.117619
0.013784
0.117675
0.0135149
0.117644
0.0132204
0.117533
0.0129065
0.117352
0.0125781
0.117108
0.0122397
0.11681
0.0118949
0.116465
0.0115466
0.116079
0.0111976
0.115658
0.0108499
0.115208
0.0105051
0.114733
0.0101647
0.114239
0.00982976
0.113729
0.00950107
0.113207
0.00917931
0.112676
0.00886494
0.112138
0.00855829
0.111597
0.00825958
0.111055
0.00796893
0.110513
0.00768635
0.109973
0.00741183
0.109437
0.00714527
0.108906
0.00688655
0.108381
0.00663549
0.107863
0.00639192
0.107353
0.00615561
0.106851
0.00592634
0.106359
0.00570387
0.105877
0.00548794
0.105405
0.0052783
0.104944
0.00507468
0.104493
0.00487683
0.104054
0.00468447
0.103626
0.00449735
0.10321
0.00431519
0.102806
0.00413773
0.102413
0.00396472
0.102032
0.00379589
0.101664
0.00363099
0.101308
0.00346975
0.100963
0.00331192
0.100631
0.00315724
0.100311
0.00300545
0.100003
0.00285631
0.0997074
0.00270954
0.0994239
0.0025649
0.0991525
0.0024221
0.0988932
0.00228088
0.0986461
0.00214097
0.0984112
0.00200207
0.0981884
0.0018639
0.0979778
0.00172614
0.0977794
0.00158847
0.0975932
0.00145055
0.0974192
0.00131202
0.0972575
0.0011725
0.0971081
0.00103158
0.0969709
0.000888811
0.096846
0.000743714
0.0967335
0.000595767
0.0966333
0.000444403
0.0965453
0.000288996
0.0964695
0.000128865
0.0964057
-3.67412e-05
0.0963537
-0.000208642
0.0963133
-0.000387731
0.0962839
-0.00057498
0.0962649
-0.000771428
0.0962554
-0.000978174
0.0962543
-0.00119635
0.0962601
-0.00142709
0.0962708
-0.00167145
0.096284
-0.00193034
0.0962968
-0.0022044
0.0963058
-0.00249382
0.0963071
-0.00279818
0.0962967
-0.00311626
0.0962706
-0.0034458
0.0962255
-0.00378345
-0.0041248
0.0961592
0.1001
0.000717047
0.100406
0.00216716
0.100913
0.00360437
0.101606
0.00499548
0.102462
0.00631397
0.103451
0.00753994
0.104542
0.00865926
0.105705
0.00966307
0.106908
0.0105472
0.108122
0.0113111
0.109321
0.0119571
0.110481
0.0124899
0.111584
0.0129155
0.112615
0.0132413
0.113561
0.0134752
0.114414
0.0136257
0.11517
0.0137012
0.115826
0.0137103
0.116383
0.013661
0.116843
0.0135611
0.117209
0.0134178
0.117487
0.0132376
0.11768
0.0130267
0.117796
0.0127905
0.117841
0.0125338
0.11782
0.0122607
0.117739
0.0119752
0.117606
0.0116804
0.117424
0.0113791
0.1172
0.0110737
0.116939
0.0107663
0.116645
0.0104585
0.116323
0.0101518
0.115977
0.00984733
0.11561
0.00954617
0.115226
0.00924906
0.114828
0.00895665
0.114418
0.00866941
0.113999
0.00838775
0.113573
0.00811192
0.113143
0.00784213
0.11271
0.0075785
0.112275
0.00732109
0.111841
0.0070699
0.111408
0.0068249
0.110978
0.00658602
0.110551
0.00635315
0.110128
0.00612618
0.109711
0.00590494
0.1093
0.00568929
0.108896
0.00547904
0.108499
0.005274
0.108109
0.00507397
0.107728
0.00487875
0.107355
0.00468812
0.106991
0.00450187
0.106636
0.00431978
0.10629
0.00414162
0.105954
0.00396717
0.105628
0.0037962
0.105311
0.00362846
0.105004
0.00346374
0.104708
0.00330179
0.104422
0.00314236
0.104146
0.00298521
0.103881
0.00283009
0.103627
0.00267674
0.103383
0.0025249
0.103149
0.0023743
0.102927
0.00222466
0.102715
0.00207568
0.102514
0.00192705
0.102324
0.00177847
0.102145
0.0016296
0.101977
0.00148007
0.10182
0.00132952
0.101674
0.00117753
0.101539
0.00102368
0.101415
0.000867498
0.101302
0.00070849
0.101201
0.000546111
0.10111
0.000379775
0.10103
0.00020885
0.10096
3.26512e-05
0.100901
-0.000149558
0.100852
-0.000338563
0.100812
-0.000535199
0.100781
-0.000740334