/*--------------------------------*- C++ -*----------------------------------*\
| =========                 |                                                 |
| \\      /  F ield         | OpenFOAM: The Open Source CFD Toolbox           |
|  \\    /   O peration     | Version:  2406                                  |
|   \\  /    A nd           | Website:  www.openfoam.com                      |
|    \\/     M anipulation  |                                                 |
\*---------------------------------------------------------------------------*/
FoamFile
{
    version     2.0;
    format      ascii;
    arch        "LSB;label=32;scalar=64";
    class       volVectorField;
    location    "200";
    object      U;
}
// * * * * * * * * * * * * * * * * * * * * * * * * * * * * * * * * * * * * * //

dimensions      [0 1 -1 0 0 0 0];

internalField   nonuniform List<vector> 
150000
(
(7.94097 0.953543 0)
(6.69751 1.02915 0)
(5.17752 0.578426 0)
(3.90223 0.294367 0)
(3.11154 0.166098 0)
(2.6035 0.0998732 0)
(2.24745 0.0624308 0)
(1.98835 0.0414131 0)
(1.79361 0.0293117 0)
(1.64175 0.0219066 0)
(1.51955 0.0170905 0)
(1.41874 0.0137889 0)
(1.33393 0.0114174 0)
(1.26143 0.00964457 0)
(1.19863 0.0082756 0)
(1.14365 0.00719067 0)
(1.09506 0.00631273 0)
(1.05179 0.00559006 0)
(1.01299 0.00498671 0)
(0.978001 0.00447689 0)
(0.946278 0.00404162 0)
(0.917387 0.00366662 0)
(0.890966 0.00334094 0)
(0.866714 0.00305607 0)
(0.84438 0.00280527 0)
(0.823751 0.00258319 0)
(0.804644 0.00238547 0)
(0.786904 0.00220859 0)
(0.770395 0.00204963 0)
(0.755 0.00190618 0)
(0.740617 0.00177622 0)
(0.727157 0.00165807 0)
(0.71454 0.00155027 0)
(0.702697 0.00145163 0)
(0.691565 0.00136108 0)
(0.681089 0.00127773 0)
(0.67122 0.0012008 0)
(0.661913 0.00112961 0)
(0.653129 0.00106358 0)
(0.644831 0.00100219 0)
(0.636986 0.00094498 0)
(0.629566 0.000891554 0)
(0.622543 0.000841555 0)
(0.615894 0.000794665 0)
(0.609595 0.000750603 0)
(0.603626 0.000709115 0)
(0.59797 0.000669973 0)
(0.592609 0.000632974 0)
(0.587527 0.00059793 0)
(0.58271 0.000564674 0)
(0.578145 0.000533051 0)
(0.573821 0.000502921 0)
(0.569725 0.000474156 0)
(0.565849 0.000446637 0)
(0.562182 0.000420252 0)
(0.558716 0.000394901 0)
(0.555444 0.000370488 0)
(0.552358 0.000346923 0)
(0.549452 0.000324122 0)
(0.54672 0.000302004 0)
(0.544157 0.000280492 0)
(0.541758 0.000259513 0)
(0.539519 0.000238994 0)
(0.537436 0.000218864 0)
(0.535505 0.000199055 0)
(0.533726 0.000179497 0)
(0.532094 0.000160119 0)
(0.530609 0.000140848 0)
(0.529269 0.000121613 0)
(0.528074 0.000102333 0)
(0.527023 8.29282e-05 0)
(0.526117 6.33079e-05 0)
(0.525357 4.33796e-05 0)
(0.524745 2.30335e-05 0)
(0.524283 2.15723e-06 0)
(0.523975 -1.93869e-05 0)
(0.523824 -4.17428e-05 0)
(0.523836 -6.50923e-05 0)
(0.524018 -8.96313e-05 0)
(0.524377 -0.000115609 0)
(0.524923 -0.000143301 0)
(0.525668 -0.000173063 0)
(0.526625 -0.000205301 0)
(0.527811 -0.000240549 0)
(0.529249 -0.000279446 0)
(0.530963 -0.000322856 0)
(0.532986 -0.00037191 0)
(0.53536 -0.000428287 0)
(0.53814 -0.000494573 0)
(0.5414 -0.000575314 0)
(0.545249 -0.000679105 0)
(0.549851 -0.000823583 0)
(0.555478 -0.00104649 0)
(0.56261 -0.00143309 0)
(0.572143 -0.00218731 0)
(0.585764 -0.00379457 0)
(0.606748 -0.00736321 0)
(0.643094 -0.0162372 0)
(0.717612 -0.0476538 0)
(0.83454 -0.176819 0)
(10.2186 1.88711 0)
(10.3826 2.72492 0)
(9.62174 2.24104 0)
(8.49567 1.62029 0)
(7.47686 1.14052 0)
(6.64239 0.807975 0)
(5.96332 0.586428 0)
(5.41258 0.439575 0)
(4.9646 0.340438 0)
(4.59583 0.271534 0)
(4.28785 0.222069 0)
(4.02708 0.185424 0)
(3.80349 0.15749 0)
(3.60964 0.135659 0)
(3.43989 0.118228 0)
(3.28996 0.104056 0)
(3.15653 0.0923519 0)
(3.03699 0.0825577 0)
(2.92926 0.0742665 0)
(2.83167 0.0671767 0)
(2.74285 0.0610601 0)
(2.66168 0.0557411 0)
(2.58721 0.051083 0)
(2.51867 0.0469774 0)
(2.45538 0.0433377 0)
(2.39678 0.040094 0)
(2.34239 0.037189 0)
(2.29179 0.0345757 0)
(2.24461 0.0322151 0)
(2.20054 0.0300747 0)
(2.15929 0.0281268 0)
(2.12063 0.0263484 0)
(2.08434 0.0247195 0)
(2.05022 0.0232232 0)
(2.01811 0.021845 0)
(1.98785 0.0205721 0)
(1.9593 0.0193935 0)
(1.93235 0.0182998 0)
(1.90688 0.0172825 0)
(1.88279 0.0163342 0)
(1.85998 0.0154484 0)
(1.83839 0.0146193 0)
(1.81793 0.0138417 0)
(1.79853 0.0131111 0)
(1.78014 0.0124233 0)
(1.76269 0.0117747 0)
(1.74613 0.0111618 0)
(1.73041 0.0105818 0)
(1.7155 0.0100318 0)
(1.70134 0.00950941 0)
(1.68791 0.00901233 0)
(1.67517 0.00853849 0)
(1.66308 0.00808597 0)
(1.65162 0.00765301 0)
(1.64076 0.007238 0)
(1.63048 0.0068394 0)
(1.62075 0.0064558 0)
(1.61156 0.00608589 0)
(1.60289 0.00572841 0)
(1.59471 0.00538217 0)
(1.58702 0.00504605 0)
(1.57979 0.00471896 0)
(1.57303 0.00439986 0)
(1.56671 0.00408773 0)
(1.56082 0.00378156 0)
(1.55537 0.00348035 0)
(1.55033 0.00318312 0)
(1.54572 0.00288884 0)
(1.54151 0.0025965 0)
(1.53772 0.00230501 0)
(1.53433 0.00201324 0)
(1.53136 0.00172002 0)
(1.52879 0.00142403 0)
(1.52664 0.00112389 0)
(1.52491 0.000818029 0)
(1.52361 0.000504717 0)
(1.52275 0.000181979 0)
(1.52234 -0.000152454 0)
(1.5224 -0.000501224 0)
(1.52295 -0.000867455 0)
(1.52401 -0.00125488 0)
(1.52562 -0.00166803 0)
(1.52781 -0.00211248 0)
(1.53062 -0.00259526 0)
(1.53411 -0.00312534 0)
(1.53836 -0.00371456 0)
(1.54344 -0.00437902 0)
(1.54946 -0.00514156 0)
(1.55658 -0.00603619 0)
(1.56498 -0.00711642 0)
(1.57494 -0.00847133 0)
(1.58685 -0.0102574 0)
(1.60131 -0.0127619 0)
(1.61925 -0.0165327 0)
(1.64213 -0.0226434 0)
(1.67234 -0.0332269 0)
(1.71372 -0.052476 0)
(1.77305 -0.0886648 0)
(1.85992 -0.159267 0)
(1.95872 -0.299275 0)
(10.1768 1.3455 0)
(10.7882 2.5379 0)
(10.9413 2.66457 0)
(10.5997 2.36731 0)
(10.0103 1.96107 0)
(9.34923 1.57578 0)
(8.70091 1.25797 0)
(8.10448 1.01142 0)
(7.57343 0.823934 0)
(7.10688 0.681338 0)
(6.69832 0.571846 0)
(6.33997 0.486583 0)
(6.02438 0.419138 0)
(5.74502 0.364949 0)
(5.49636 0.320768 0)
(5.27381 0.284259 0)
(5.07359 0.253723 0)
(4.89258 0.227903 0)
(4.72821 0.20586 0)
(4.57833 0.186874 0)
(4.44115 0.170395 0)
(4.31514 0.155988 0)
(4.19904 0.143313 0)
(4.09176 0.132095 0)
(3.99235 0.122114 0)
(3.90003 0.113189 0)
(3.81408 0.105173 0)
(3.7339 0.0979417 0)
(3.65897 0.091394 0)
(3.58882 0.0854433 0)
(3.52303 0.080017 0)
(3.46124 0.075053 0)
(3.40314 0.0704985 0)
(3.34842 0.0663079 0)
(3.29684 0.062442 0)
(3.24815 0.0588665 0)
(3.20216 0.0555518 0)
(3.15868 0.0524718 0)
(3.11753 0.0496038 0)
(3.07855 0.0469274 0)
(3.04162 0.0444249 0)
(3.00661 0.0420804 0)
(2.97339 0.0398798 0)
(2.94186 0.0378104 0)
(2.91192 0.035861 0)
(2.88348 0.0340213 0)
(2.85647 0.0322821 0)
(2.83081 0.0306351 0)
(2.80642 0.0290728 0)
(2.78325 0.0275882 0)
(2.76123 0.026175 0)
(2.74032 0.0248275 0)
(2.72045 0.0235404 0)
(2.7016 0.0223088 0)
(2.6837 0.0211281 0)
(2.66674 0.0199941 0)
(2.65066 0.018903 0)
(2.63544 0.0178509 0)
(2.62104 0.0168344 0)
(2.60745 0.0158503 0)
(2.59463 0.0148953 0)
(2.58256 0.0139665 0)
(2.57123 0.013061 0)
(2.56061 0.0121759 0)
(2.55069 0.0113084 0)
(2.54145 0.0104559 0)
(2.53289 0.00961557 0)
(2.52499 0.00878461 0)
(2.51775 0.00796023 0)
(2.51116 0.00713948 0)
(2.50521 0.00631931 0)
(2.49992 0.00549647 0)
(2.49528 0.00466748 0)
(2.49129 0.00382856 0)
(2.48797 0.00297553 0)
(2.48531 0.00210374 0)
(2.48335 0.00120791 0)
(2.48209 0.000282003 0)
(2.48157 -0.000681001 0)
(2.4818 -0.00168938 0)
(2.48283 -0.00275303 0)
(2.48469 -0.00388396 0)
(2.48744 -0.00509698 0)
(2.49115 -0.00641064 0)
(2.49589 -0.00784875 0)
(2.50176 -0.00944255 0)
(2.50889 -0.0112342 0)
(2.51742 -0.0132826 0)
(2.52756 -0.0156731 0)
(2.53958 -0.0185339 0)
(2.55382 -0.0220665 0)
(2.57078 -0.0265984 0)
(2.59112 -0.0326789 0)
(2.61578 -0.041251 0)
(2.64607 -0.0539552 0)
(2.68369 -0.0736386 0)
(2.73064 -0.105122 0)
(2.78881 -0.156281 0)
(2.85709 -0.239174 0)
(2.91861 -0.365989 0)
(10.0798 0.823375 0)
(10.5966 1.94643 0)
(11.0632 2.45317 0)
(11.2348 2.53042 0)
(11.1194 2.36857 0)
(10.813 2.10328 0)
(10.4016 1.81869 0)
(9.94705 1.55603 0)
(9.48882 1.32944 0)
(9.04871 1.14 0)
(8.63699 0.983681 0)
(8.25725 0.855041 0)
(7.90954 0.748855 0)
(7.59214 0.66066 0)
(7.30259 0.586849 0)
(7.03821 0.52457 0)
(6.79641 0.471593 0)
(6.57479 0.426175 0)
(6.37119 0.386947 0)
(6.18368 0.352833 0)
(6.01058 0.322973 0)
(5.85039 0.296682 0)
(5.70183 0.273405 0)
(5.56375 0.252691 0)
(5.43516 0.234171 0)
(5.31516 0.217539 0)
(5.20299 0.202543 0)
(5.09796 0.188968 0)
(4.99946 0.176637 0)
(4.90695 0.165399 0)
(4.81994 0.155123 0)
(4.73801 0.145701 0)
(4.66076 0.137037 0)
(4.58786 0.129049 0)
(4.51897 0.121666 0)
(4.45383 0.114826 0)
(4.39217 0.108474 0)
(4.33377 0.102564 0)
(4.2784 0.097052 0)
(4.22588 0.0919023 0)
(4.17603 0.0870813 0)
(4.12869 0.0825597 0)
(4.08372 0.0783112 0)
(4.04097 0.0743122 0)
(4.00032 0.0705416 0)
(3.96167 0.0669804 0)
(3.92489 0.0636112 0)
(3.88991 0.0604184 0)
(3.85662 0.0573878 0)
(3.82494 0.0545064 0)
(3.79481 0.0517623 0)
(3.76614 0.0491446 0)
(3.73888 0.0466432 0)
(3.71296 0.0442489 0)
(3.68832 0.0419531 0)
(3.66493 0.0397477 0)
(3.64273 0.0376254 0)
(3.62167 0.035579 0)
(3.60172 0.033602 0)
(3.58284 0.0316881 0)
(3.565 0.0298313 0)
(3.54817 0.0280259 0)
(3.53231 0.0262664 0)
(3.51742 0.0245475 0)
(3.50346 0.0228638 0)
(3.49041 0.0212101 0)
(3.47827 0.0195814 0)
(3.46701 0.0179723 0)
(3.45662 0.0163776 0)
(3.44711 0.0147916 0)
(3.43845 0.0132088 0)
(3.43066 0.0116231 0)
(3.42373 0.0100279 0)
(3.41766 0.00841636 0)
(3.41247 0.00678066 0)
(3.40816 0.00511227 0)
(3.40475 0.00340151 0)
(3.40227 0.00163735 0)
(3.40074 -0.000192996 0)
(3.40019 -0.00210454 0)
(3.40067 -0.00411518 0)
(3.40222 -0.00624655 0)
(3.40491 -0.0085252 0)
(3.40882 -0.0109843 0)
(3.41402 -0.013666 0)
(3.42064 -0.0166254 0)
(3.42881 -0.0199354 0)
(3.43871 -0.0236962 0)
(3.45055 -0.0280489 0)
(3.4646 -0.0331978 0)
(3.48122 -0.0394485 0)
(3.50086 -0.0472684 0)
(3.52406 -0.0573873 0)
(3.55152 -0.0709566 0)
(3.584 -0.0897902 0)
(3.6222 -0.11669 0)
(3.6663 -0.155778 0)
(3.71512 -0.212583 0)
(3.76411 -0.293063 0)
(3.80109 -0.398484 0)
(10.0426 0.546291 0)
(10.395 1.4586 0)
(10.8535 2.0515 0)
(11.2147 2.33737 0)
(11.3916 2.39292 0)
(11.3904 2.30024 0)
(11.249 2.12869 0)
(11.0105 1.92698 0)
(10.7135 1.72399 0)
(10.3871 1.5344 0)
(10.0515 1.36424 0)
(9.71928 1.21477 0)
(9.39812 1.08485 0)
(9.09212 0.972416 0)
(8.80319 0.875144 0)
(8.53187 0.790822 0)
(8.27791 0.717481 0)
(8.04058 0.653431 0)
(7.81894 0.597245 0)
(7.61193 0.547733 0)
(7.41851 0.503903 0)
(7.23763 0.464933 0)
(7.06832 0.430135 0)
(6.90968 0.398937 0)
(6.76086 0.370858 0)
(6.62111 0.345494 0)
(6.4897 0.322502 0)
(6.36602 0.301593 0)
(6.24948 0.282518 0)
(6.13954 0.265065 0)
(6.03574 0.249052 0)
(5.93764 0.234322 0)
(5.84484 0.220736 0)
(5.75698 0.208177 0)
(5.67372 0.196541 0)
(5.59478 0.185735 0)
(5.51987 0.17568 0)
(5.44874 0.166304 0)
(5.38116 0.157546 0)
(5.31693 0.149348 0)
(5.25583 0.141662 0)
(5.1977 0.134442 0)
(5.14237 0.127649 0)
(5.08968 0.121247 0)
(5.0395 0.115204 0)
(4.9917 0.109489 0)
(4.94615 0.104078 0)
(4.90274 0.0989446 0)
(4.86138 0.0940681 0)
(4.82196 0.0894279 0)
(4.7844 0.0850057 0)
(4.74862 0.0807845 0)
(4.71453 0.0767485 0)
(4.68207 0.0728834 0)
(4.65118 0.0691757 0)
(4.62179 0.0656127 0)
(4.59385 0.0621829 0)
(4.5673 0.0588751 0)
(4.5421 0.0556791 0)
(4.51821 0.0525848 0)
(4.49559 0.0495831 0)
(4.47419 0.0466648 0)
(4.45399 0.0438212 0)
(4.43496 0.041044 0)
(4.41706 0.0383249 0)
(4.40029 0.0356557 0)
(4.3846 0.0330282 0)
(4.37 0.0304344 0)
(4.35647 0.0278659 0)
(4.34399 0.0253141 0)
(4.33255 0.0227702 0)
(4.32216 0.0202247 0)
(4.31281 0.0176677 0)
(4.3045 0.0150885 0)
(4.29725 0.0124751 0)
(4.29106 0.00981456 0)
(4.28595 0.00709217 0)
(4.28195 0.00429123 0)
(4.27907 0.0013925 0)
(4.27736 -0.00162651 0)
(4.27686 -0.00479243 0)
(4.27761 -0.00813729 0)
(4.27969 -0.0117001 0)
(4.28317 -0.0155293 0)
(4.28815 -0.0196856 0)
(4.29472 -0.0242474 0)
(4.30304 -0.0293168 0)
(4.31326 -0.0350308 0)
(4.32558 -0.0415766 0)
(4.34025 -0.0492156 0)
(4.35754 -0.0583208 0)
(4.3778 -0.0694325 0)
(4.40138 -0.0833407 0)
(4.42864 -0.101201 0)
(4.45982 -0.124681 0)
(4.49479 -0.156098 0)
(4.5327 -0.198441 0)
(4.57123 -0.254998 0)
(4.60572 -0.328048 0)
(4.62831 -0.415522 0)
(10.0236 0.385425 0)
(10.2537 1.09635 0)
(10.6178 1.64925 0)
(10.9919 2.01098 0)
(11.2855 2.19881 0)
(11.4638 2.24847 0)
(11.5249 2.20074 0)
(11.4835 2.09284 0)
(11.3617 1.95353 0)
(11.1823 1.80246 0)
(10.9649 1.65187 0)
(10.7249 1.50868 0)
(10.4737 1.37625 0)
(10.2195 1.25579 0)
(9.96774 1.14727 0)
(9.72206 1.05001 0)
(9.48471 0.963028 0)
(9.25698 0.885277 0)
(9.03952 0.815713 0)
(8.83254 0.753367 0)
(8.63595 0.69737 0)
(8.4495 0.646948 0)
(8.2728 0.601427 0)
(8.10542 0.560217 0)
(7.94687 0.522808 0)
(7.79669 0.488757 0)
(7.6544 0.457679 0)
(7.51953 0.429243 0)
(7.39164 0.403158 0)
(7.27032 0.379171 0)
(7.15516 0.357063 0)
(7.0458 0.33664 0)
(6.9419 0.317733 0)
(6.84313 0.300194 0)
(6.74918 0.28389 0)
(6.65979 0.268705 0)
(6.57468 0.254536 0)
(6.49363 0.241292 0)
(6.4164 0.22889 0)
(6.34279 0.217256 0)
(6.2726 0.206326 0)
(6.20566 0.19604 0)
(6.14179 0.186345 0)
(6.08084 0.177193 0)
(6.02267 0.16854 0)
(5.96715 0.160347 0)
(5.91413 0.152577 0)
(5.86352 0.145198 0)
(5.8152 0.13818 0)
(5.76907 0.131495 0)
(5.72503 0.125118 0)
(5.68301 0.119025 0)
(5.6429 0.113195 0)
(5.60465 0.107607 0)
(5.56818 0.102244 0)
(5.53342 0.0970865 0)
(5.50031 0.0921197 0)
(5.4688 0.0873276 0)
(5.43883 0.0826959 0)
(5.41036 0.0782106 0)
(5.38334 0.0738587 0)
(5.35773 0.0696274 0)
(5.33349 0.0655047 0)
(5.31059 0.0614787 0)
(5.289 0.0575378 0)
(5.26869 0.0536706 0)
(5.24965 0.0498656 0)
(5.23184 0.0461114 0)
(5.21525 0.0423965 0)
(5.19988 0.0387088 0)
(5.1857 0.0350361 0)
(5.17272 0.0313653 0)
(5.16093 0.0276827 0)
(5.15033 0.0239733 0)
(5.14092 0.0202211 0)
(5.13272 0.0164083 0)
(5.12575 0.0125148 0)
(5.12002 0.00851818 0)
(5.11556 0.00439257 0)
(5.1124 0.000108005 0)
(5.11058 -0.00437078 0)
(5.11016 -0.00908581 0)
(5.11119 -0.0140879 0)
(5.11374 -0.0194393 0)
(5.1179 -0.0252173 0)
(5.12378 -0.0315197 0)
(5.13148 -0.0384719 0)
(5.14115 -0.0462376 0)
(5.15295 -0.0550337 0)
(5.16705 -0.0651526 0)
(5.18366 -0.0769928 0)
(5.20298 -0.0911023 0)
(5.22515 -0.108235 0)
(5.25026 -0.129419 0)
(5.27814 -0.156021 0)
(5.30822 -0.189759 0)
(5.33921 -0.232582 0)
(5.36871 -0.28622 0)
(5.39296 -0.351166 0)
(5.40702 -0.424838 0)
(10.0134 0.283884 0)
(10.1646 0.836988 0)
(10.4345 1.31411 0)
(10.7556 1.67839 0)
(11.0611 1.92411 0)
(11.3108 2.06163 0)
(11.4853 2.10973 0)
(11.5796 2.09059 0)
(11.5992 2.02525 0)
(11.5551 1.93118 0)
(11.4604 1.82162 0)
(11.3275 1.70589 0)
(11.1672 1.59021 0)
(10.9886 1.47838 0)
(10.7987 1.37258 0)
(10.6029 1.27387 0)
(10.4052 1.18258 0)
(10.2087 1.09864 0)
(10.0152 1.02171 0)
(9.82644 0.951323 0)
(9.64318 0.886963 0)
(9.46609 0.828104 0)
(9.29551 0.774235 0)
(9.1316 0.724879 0)
(8.97438 0.679594 0)
(8.82377 0.637981 0)
(8.67963 0.599677 0)
(8.54177 0.56436 0)
(8.40998 0.531738 0)
(8.28403 0.501551 0)
(8.16367 0.47357 0)
(8.04868 0.447587 0)
(7.9388 0.423419 0)
(7.8338 0.400899 0)
(7.73346 0.379882 0)
(7.63755 0.360235 0)
(7.54587 0.341839 0)
(7.45821 0.324589 0)
(7.37439 0.308388 0)
(7.29423 0.293149 0)
(7.21755 0.278795 0)
(7.14419 0.265255 0)
(7.07401 0.252464 0)
(7.00686 0.240364 0)
(6.9426 0.228902 0)
(6.88111 0.218029 0)
(6.82227 0.207701 0)
(6.76597 0.197877 0)
(6.7121 0.18852 0)
(6.66056 0.179594 0)
(6.61126 0.171069 0)
(6.56411 0.162914 0)
(6.51903 0.155102 0)
(6.47595 0.147608 0)
(6.4348 0.140408 0)
(6.39549 0.133479 0)
(6.35799 0.126801 0)
(6.32222 0.120354 0)
(6.28814 0.11412 0)
(6.25568 0.108079 0)
(6.22482 0.102216 0)
(6.1955 0.0965145 0)
(6.16768 0.0909579 0)
(6.14134 0.0855313 0)
(6.11643 0.0802196 0)
(6.09293 0.075008 0)
(6.07082 0.0698817 0)
(6.05007 0.0648259 0)
(6.03067 0.0598255 0)
(6.01259 0.0548652 0)
(5.99583 0.049929 0)
(5.98038 0.0450002 0)
(5.96623 0.0400613 0)
(5.95339 0.0350931 0)
(5.94185 0.0300753 0)
(5.93163 0.0249853 0)
(5.92274 0.019798 0)
(5.91519 0.0144853 0)
(5.90901 0.00901513 0)
(5.90423 0.00335053 0)
(5.90089 -0.00255155 0)
(5.89902 -0.00874195 0)
(5.89868 -0.0152815 0)
(5.89994 -0.0222436 0)
(5.90286 -0.0297185 0)
(5.90752 -0.0378179 0)
(5.91403 -0.0466823 0)
(5.92248 -0.05649 0)
(5.93298 -0.0674708 0)
(5.94565 -0.0799228 0)
(5.9606 -0.0942352 0)
(5.97789 -0.110917 0)
(5.99752 -0.13063 0)
(6.01936 -0.154217 0)
(6.04301 -0.182712 0)
(6.06773 -0.217298 0)
(6.09215 -0.259139 0)
(6.11423 -0.309018 0)
(6.13115 -0.36666 0)
(6.13984 -0.429804 0)
(10.0083 0.217997 0)
(10.1103 0.654602 0)
(10.3067 1.05474 0)
(10.5625 1.38907 0)
(10.8345 1.64605 0)
(11.0905 1.82514 0)
(11.3085 1.93267 0)
(11.4753 1.97948 0)
(11.5862 1.97822 0)
(11.6425 1.94128 0)
(11.6495 1.87953 0)
(11.6143 1.80185 0)
(11.5444 1.7151 0)
(11.4472 1.62429 0)
(11.3292 1.53294 0)
(11.196 1.44343 0)
(11.0521 1.35725 0)
(10.9012 1.27528 0)
(10.7464 1.19796 0)
(10.5899 1.12546 0)
(10.4336 1.05774 0)
(10.2786 0.994637 0)
(10.1262 0.935937 0)
(9.97695 0.881373 0)
(9.83142 0.830664 0)
(9.68998 0.78353 0)
(9.55287 0.739697 0)
(9.42021 0.698906 0)
(9.29207 0.660912 0)
(9.16845 0.625488 0)
(9.04932 0.592424 0)
(8.9346 0.561527 0)
(8.82421 0.53262 0)
(8.71803 0.505543 0)
(8.61595 0.480149 0)
(8.51784 0.456302 0)
(8.42356 0.433881 0)
(8.333 0.412774 0)
(8.24601 0.39288 0)
(8.16247 0.374105 0)
(8.08225 0.356364 0)
(8.00522 0.339581 0)
(7.93127 0.323683 0)
(7.86028 0.308606 0)
(7.79214 0.29429 0)
(7.72674 0.28068 0)
(7.66399 0.267724 0)
(7.60378 0.255377 0)
(7.54602 0.243595 0)
(7.49062 0.232337 0)
(7.4375 0.221567 0)
(7.38659 0.21125 0)
(7.3378 0.201353 0)
(7.29107 0.191846 0)
(7.24633 0.182702 0)
(7.20351 0.173893 0)
(7.16256 0.165395 0)
(7.12343 0.157183 0)
(7.08605 0.149235 0)
(7.05039 0.141529 0)
(7.01639 0.134045 0)
(6.98403 0.126764 0)
(6.95325 0.119665 0)
(6.92402 0.11273 0)
(6.89632 0.105941 0)
(6.87011 0.0992799 0)
(6.84536 0.092728 0)
(6.82207 0.0862675 0)
(6.80019 0.0798799 0)
(6.77973 0.0735467 0)
(6.76067 0.0672482 0)
(6.74299 0.0609644 0)
(6.72669 0.0546737 0)
(6.71178 0.0483534 0)
(6.69825 0.0419788 0)
(6.6861 0.035523 0)
(6.67535 0.0289562 0)
(6.66601 0.0222452 0)
(6.6581 0.0153524 0)
(6.65165 0.00823499 0)
(6.64668 0.000843287 0)
(6.64323 -0.00688057 0)
(6.64135 -0.015005 0)
(6.64107 -0.0236115 0)
(6.64246 -0.0327985 0)
(6.64558 -0.0426858 0)
(6.65049 -0.0534204 0)
(6.65726 -0.0651846 0)
(6.66594 -0.0782056 0)
(6.6766 -0.0927681 0)
(6.68925 -0.109229 0)
(6.70387 -0.128031 0)
(6.72033 -0.149722 0)
(6.73838 -0.174951 0)
(6.75754 -0.204458 0)
(6.777 -0.239002 0)
(6.79558 -0.27922 0)
(6.8116 -0.325357 0)
(6.82308 -0.376867 0)
(6.82804 -0.431959 0)
(10.0055 0.173513 0)
(10.0768 0.524998 0)
(10.2205 0.85854 0)
(10.4187 1.1532 0)
(10.645 1.39789 0)
(10.8769 1.5885 0)
(11.0961 1.7256 0)
(11.2887 1.81336 0)
(11.4459 1.85831 0)
(11.5636 1.86796 0)
(11.6413 1.84986 0)
(11.6811 1.81094 0)
(11.6868 1.75719 0)
(11.6628 1.69352 0)
(11.6138 1.62381 0)
(11.5442 1.55101 0)
(11.4582 1.47732 0)
(11.3594 1.40429 0)
(11.2509 1.33301 0)
(11.1353 1.26418 0)
(11.0147 1.19826 0)
(10.8911 1.13549 0)
(10.7659 1.07595 0)
(10.6401 1.01967 0)
(10.5148 0.966576 0)
(10.3908 0.916554 0)
(10.2684 0.869472 0)
(10.1483 0.825178 0)
(10.0308 0.783513 0)
(9.91603 0.744317 0)
(9.80423 0.707434 0)
(9.69553 0.672711 0)
(9.58999 0.640002 0)
(9.48765 0.609171 0)
(9.38853 0.580087 0)
(9.2926 0.55263 0)
(9.19984 0.526686 0)
(9.1102 0.502151 0)
(9.02363 0.478926 0)
(8.94006 0.45692 0)
(8.85944 0.43605 0)
(8.78167 0.416237 0)
(8.7067 0.397409 0)
(8.63445 0.379499 0)
(8.56483 0.362445 0)
(8.49779 0.346187 0)
(8.43323 0.330674 0)
(8.3711 0.315854 0)
(8.31131 0.301681 0)
(8.2538 0.288111 0)
(8.19851 0.275103 0)
(8.14536 0.26262 0)
(8.0943 0.250626 0)
(8.04527 0.239086 0)
(7.99822 0.22797 0)
(7.95307 0.217247 0)
(7.9098 0.206888 0)
(7.86835 0.196868 0)
(7.82866 0.187159 0)
(7.79071 0.177738 0)
(7.75445 0.16858 0)
(7.71984 0.159663 0)
(7.68685 0.150964 0)
(7.65544 0.142462 0)
(7.62559 0.134136 0)
(7.59727 0.125964 0)
(7.57046 0.117925 0)
(7.54513 0.109998 0)
(7.52126 0.102162 0)
(7.49885 0.0943939 0)
(7.47788 0.0866725 0)
(7.45833 0.0789738 0)
(7.44021 0.0712728 0)
(7.42351 0.0635434 0)
(7.40822 0.0557571 0)
(7.39436 0.0478832 0)
(7.38193 0.0398879 0)
(7.37094 0.0317335 0)
(7.36141 0.0233782 0)
(7.35334 0.0147742 0)
(7.34678 0.00586695 0)
(7.34174 -0.00340641 0)
(7.33825 -0.0131192 0)
(7.33635 -0.0233578 0)
(7.33608 -0.0342243 0)
(7.33747 -0.0458408 0)
(7.34056 -0.0583538 0)
(7.34538 -0.0719403 0)
(7.35195 -0.086814 0)
(7.36027 -0.103234 0)
(7.3703 -0.12151 0)
(7.38194 -0.142013 0)
(7.39499 -0.165171 0)
(7.40915 -0.191464 0)
(7.42391 -0.221393 0)
(7.43852 -0.255413 0)
(7.452 -0.293823 0)
(7.46305 -0.336587 0)
(7.47027 -0.383106 0)
(7.47237 -0.432008 0)
(10.004 0.142055 0)
(10.0556 0.430749 0)
(10.1623 0.710173 0)
(10.3152 0.965874 0)
(10.4982 1.1889 0)
(10.6964 1.37458 0)
(10.8965 1.52133 0)
(11.0869 1.63007 0)
(11.2585 1.70364 0)
(11.4053 1.7461 0)
(11.5238 1.76208 0)
(11.6129 1.75633 0)
(11.6731 1.73337 0)
(11.7062 1.69725 0)
(11.7147 1.65147 0)
(11.7014 1.59894 0)
(11.6693 1.54203 0)
(11.6213 1.4826 0)
(11.5599 1.42208 0)
(11.4878 1.36157 0)
(11.407 1.30185 0)
(11.3193 1.24351 0)
(11.2265 1.18694 0)
(11.13 1.1324 0)
(11.0308 1.08004 0)
(10.93 1.02994 0)
(10.8284 0.982128 0)
(10.7267 0.936578 0)
(10.6254 0.893244 0)
(10.5249 0.852056 0)
(10.4257 0.812932 0)
(10.3281 0.77578 0)
(10.2322 0.740508 0)
(10.1383 0.707017 0)
(10.0465 0.675213 0)
(9.95692 0.645001 0)
(9.86958 0.61629 0)
(9.78458 0.588993 0)
(9.70193 0.563025 0)
(9.62165 0.538307 0)
(9.54374 0.514763 0)
(9.46819 0.492322 0)
(9.39499 0.470915 0)
(9.3241 0.45048 0)
(9.2555 0.430957 0)
(9.18914 0.412288 0)
(9.125 0.39442 0)
(9.06303 0.377305 0)
(9.00318 0.360894 0)
(8.94543 0.345144 0)
(8.88971 0.330011 0)
(8.83599 0.315458 0)
(8.78422 0.301446 0)
(8.73437 0.287939 0)
(8.68639 0.274905 0)
(8.64023 0.262311 0)
(8.59587 0.250127 0)
(8.55327 0.238323 0)
(8.51238 0.226872 0)
(8.47318 0.215746 0)
(8.43562 0.20492 0)
(8.39969 0.194368 0)
(8.36535 0.184066 0)
(8.33258 0.173989 0)
(8.30134 0.164114 0)
(8.27163 0.154416 0)
(8.24341 0.144874 0)
(8.21668 0.135462 0)
(8.19141 0.126157 0)
(8.16759 0.116934 0)
(8.1452 0.107769 0)
(8.12425 0.0986333 0)
(8.10473 0.0895011 0)
(8.08662 0.0803424 0)
(8.06994 0.071126 0)
(8.05468 0.0618178 0)
(8.04085 0.0523807 0)
(8.02845 0.0427739 0)
(8.01749 0.032952 0)
(8.008 0.0228639 0)
(7.99997 0.012452 0)
(7.99345 0.00165014 0)
(7.98843 -0.00961726 0)
(7.98494 -0.0214379 0)
(7.98301 -0.0339141 0)
(7.98264 -0.0471653 0)
(7.98385 -0.0613319 0)
(7.98665 -0.0765788 0)
(7.99101 -0.0930997 0)
(7.99689 -0.111121 0)
(8.0042 -0.130902 0)
(8.01281 -0.152741 0)
(8.02249 -0.17696 0)
(8.0329 -0.203899 0)
(8.04357 -0.233878 0)
(8.05385 -0.267146 0)
(8.06294 -0.303796 0)
(8.06986 -0.343657 0)
(8.07362 -0.386166 0)
(8.07335 -0.430277 0)
(10.003 0.118891 0)
(10.0417 0.360423 0)
(10.1227 0.596805 0)
(10.2414 0.818056 0)
(10.388 1.01734 0)
(10.553 1.19052 0)
(10.727 1.33545 0)
(10.9014 1.45168 0)
(11.0686 1.54016 0)
(11.2224 1.60285 0)
(11.3586 1.64237 0)
(11.4744 1.66168 0)
(11.5685 1.66385 0)
(11.6407 1.65188 0)
(11.6915 1.62856 0)
(11.7224 1.59635 0)
(11.7349 1.55743 0)
(11.731 1.51363 0)
(11.7125 1.46645 0)
(11.6813 1.41715 0)
(11.6392 1.3667 0)
(11.588 1.31588 0)
(11.5291 1.2653 0)
(11.464 1.21541 0)
(11.3937 1.16655 0)
(11.3195 1.11896 0)
(11.2422 1.07282 0)
(11.1626 1.02823 0)
(11.0815 0.985258 0)
(10.9993 0.943936 0)
(10.9167 0.904264 0)
(10.8341 0.866224 0)
(10.7518 0.829783 0)
(10.6701 0.794897 0)
(10.5893 0.761515 0)
(10.5096 0.72958 0)
(10.4311 0.699034 0)
(10.354 0.669815 0)
(10.2785 0.641862 0)
(10.2045 0.615115 0)
(10.1322 0.589512 0)
(10.0617 0.564995 0)
(9.9929 0.541509 0)
(9.9259 0.518997 0)
(9.86071 0.497407 0)
(9.79735 0.476689 0)
(9.7358 0.456794 0)
(9.67606 0.437675 0)
(9.61813 0.419289 0)
(9.562 0.401593 0)
(9.50764 0.384546 0)
(9.45504 0.368111 0)
(9.40417 0.352249 0)
(9.35502 0.336926 0)
(9.30756 0.322108 0)
(9.26178 0.307763 0)
(9.21764 0.293859 0)
(9.17512 0.280366 0)
(9.1342 0.267255 0)
(9.09485 0.254498 0)
(9.05706 0.242068 0)
(9.02081 0.229937 0)
(8.98607 0.218081 0)
(8.95282 0.206472 0)
(8.92105 0.195086 0)
(8.89074 0.183897 0)
(8.86187 0.172879 0)
(8.83444 0.162008 0)
(8.80842 0.151257 0)
(8.78382 0.140599 0)
(8.76061 0.130007 0)
(8.7388 0.119452 0)
(8.71839 0.108905 0)
(8.69935 0.0983333 0)
(8.68171 0.0877039 0)
(8.66545 0.0769803 0)
(8.65059 0.0661229 0)
(8.63712 0.0550887 0)
(8.62505 0.0438299 0)
(8.61439 0.0322937 0)
(8.60515 0.0204206 0)
(8.59734 0.00814379 0)
(8.59097 -0.00461264 0)
(8.58605 -0.0179351 0)
(8.58258 -0.0319226 0)
(8.58056 -0.0466887 0)
(8.57998 -0.0623634 0)
(8.58082 -0.0790959 0)
(8.58303 -0.0970559 0)
(8.58654 -0.116435 0)
(8.59124 -0.137445 0)
(8.59696 -0.160315 0)
(8.60347 -0.185281 0)
(8.61045 -0.212573 0)
(8.61746 -0.242381 0)
(8.62396 -0.274817 0)
(8.62931 -0.309857 0)
(8.63278 -0.347275 0)
(8.63366 -0.386571 0)
(8.63136 -0.426945 0)
(10.0023 0.101252 0)
(10.0321 0.3066 0)
(10.095 0.508815 0)
(10.1884 0.700882 0)
(10.3062 0.877667 0)
(10.4422 1.03576 0)
(10.5901 1.1731 0)
(10.7436 1.28878 0)
(10.897 1.38287 0)
(11.045 1.45621 0)
(11.1835 1.51017 0)
(11.3094 1.5465 0)
(11.4205 1.56717 0)
(11.5155 1.57422 0)
(11.5939 1.56969 0)
(11.6556 1.5555 0)
(11.7014 1.53342 0)
(11.7321 1.50504 0)
(11.7487 1.47176 0)
(11.7525 1.43477 0)
(11.7449 1.3951 0)
(11.727 1.35361 0)
(11.7001 1.31098 0)
(11.6655 1.26779 0)
(11.6241 1.22451 0)
(11.5771 1.18148 0)
(11.5253 1.13901 0)
(11.4695 1.09729 0)
(11.4105 1.05651 0)
(11.3489 1.01677 0)
(11.2853 0.978158 0)
(11.2203 0.940731 0)
(11.1542 0.904516 0)
(11.0874 0.869526 0)
(11.0204 0.83576 0)
(10.9533 0.803203 0)
(10.8864 0.771834 0)
(10.8199 0.741625 0)
(10.7541 0.712541 0)
(10.689 0.684547 0)
(10.6248 0.657604 0)
(10.5617 0.63167 0)
(10.4996 0.606706 0)
(10.4388 0.582668 0)
(10.3792 0.559517 0)
(10.3209 0.537211 0)
(10.264 0.515709 0)
(10.2084 0.494973 0)
(10.1543 0.474964 0)
(10.1015 0.455644 0)
(10.0503 0.436978 0)
(10.0004 0.418929 0)
(9.95201 0.401464 0)
(9.90506 0.38455 0)
(9.85956 0.368153 0)
(9.81551 0.352244 0)
(9.7729 0.336791 0)
(9.73171 0.321766 0)
(9.69195 0.307139 0)
(9.6536 0.292882 0)
(9.61666 0.278967 0)
(9.58111 0.265369 0)
(9.54695 0.252059 0)
(9.51417 0.239011 0)
(9.48274 0.226199 0)
(9.45268 0.213596 0)
(9.42397 0.201177 0)
(9.39659 0.188914 0)
(9.37056 0.176779 0)
(9.34585 0.164745 0)
(9.32247 0.152783 0)
(9.30041 0.140863 0)
(9.27967 0.128953 0)
(9.26025 0.117021 0)
(9.24215 0.10503 0)
(9.22537 0.0929433 0)
(9.20991 0.0807197 0)
(9.19578 0.0683148 0)
(9.18298 0.05568 0)
(9.17151 0.0427617 0)
(9.16138 0.0295005 0)
(9.15259 0.0158302 0)
(9.14514 0.00167675 0)
(9.13903 -0.0130429 0)
(9.13425 -0.028422 0)
(9.13078 -0.0445655 0)
(9.12861 -0.0615911 0)
(9.12768 -0.0796299 0)
(9.12794 -0.098827 0)
(9.12929 -0.11934 0)
(9.13161 -0.141337 0)
(9.13473 -0.164989 0)
(9.13841 -0.190464 0)
(9.14235 -0.217906 0)
(9.14619 -0.247416 0)
(9.14947 -0.279021 0)
(9.15169 -0.312632 0)
(9.1523 -0.34801 0)
(9.15078 -0.384725 0)
(9.14673 -0.422155 0)
(10.0018 0.0874406 0)
(10.0254 0.264421 0)
(10.0752 0.439308 0)
(10.1499 0.607051 0)
(10.2453 0.76377 0)
(10.3574 0.906732 0)
(10.482 1.03413 0)
(10.6145 1.14497 0)
(10.7508 1.23899 0)
(10.8866 1.31644 0)
(11.0187 1.37802 0)
(11.1439 1.42474 0)
(11.26 1.45781 0)
(11.3653 1.47857 0)
(11.4587 1.48843 0)
(11.5394 1.48879 0)
(11.6073 1.481 0)
(11.6624 1.46634 0)
(11.7053 1.44597 0)
(11.7366 1.42095 0)
(11.7569 1.39222 0)
(11.7671 1.36059 0)
(11.768 1.32678 0)
(11.7607 1.29139 0)
(11.7459 1.25492 0)
(11.7245 1.21781 0)
(11.6972 1.18041 0)
(11.6649 1.143 0)
(11.6281 1.10582 0)
(11.5876 1.06907 0)
(11.5439 1.03288 0)
(11.4976 0.997373 0)
(11.4491 0.962636 0)
(11.3988 0.928732 0)
(11.3471 0.895706 0)
(11.2943 0.863587 0)
(11.2408 0.83239 0)
(11.1869 0.802122 0)
(11.1326 0.772779 0)
(11.0784 0.744352 0)
(11.0242 0.716825 0)
(10.9704 0.690179 0)
(10.917 0.664391 0)
(10.8642 0.639436 0)
(10.812 0.615287 0)
(10.7606 0.591916 0)
(10.71 0.569293 0)
(10.6603 0.54739 0)
(10.6116 0.526174 0)
(10.5638 0.505617 0)
(10.5172 0.485688 0)
(10.4716 0.466358 0)
(10.4271 0.447597 0)
(10.3837 0.429375 0)
(10.3415 0.411664 0)
(10.3005 0.394435 0)
(10.2606 0.377661 0)
(10.222 0.361313 0)
(10.1845 0.345365 0)
(10.1483 0.32979 0)
(10.1132 0.31456 0)
(10.0794 0.29965 0)
(10.0468 0.285033 0)
(10.0154 0.270683 0)
(9.98523 0.256573 0)
(9.95626 0.242677 0)
(9.92851 0.228968 0)
(9.90198 0.215419 0)
(9.87666 0.202002 0)
(9.85256 0.188689 0)
(9.82968 0.175449 0)
(9.80801 0.162252 0)
(9.78756 0.149066 0)
(9.76833 0.135856 0)
(9.75032 0.122587 0)
(9.73353 0.10922 0)
(9.71797 0.0957143 0)
(9.70364 0.0820245 0)
(9.69054 0.0681024 0)
(9.67867 0.0538949 0)
(9.66803 0.0393439 0)
(9.65862 0.0243854 0)
(9.65043 0.00894882 0)
(9.64346 -0.00704389 0)
(9.63768 -0.0236788 0)
(9.63306 -0.0410508 0)
(9.62958 -0.0592639 0)
(9.62718 -0.0784309 0)
(9.62578 -0.0986727 0)
(9.62528 -0.120116 0)
(9.62556 -0.142891 0)
(9.62643 -0.167122 0)
(9.62769 -0.192921 0)
(9.62907 -0.220373 0)
(9.63025 -0.249517 0)
(9.63087 -0.280328 0)
(9.63051 -0.312688 0)
(9.62878 -0.346361 0)
(9.6253 -0.380987 0)
(9.61977 -0.416071 0)
(10.0015 0.0763713 0)
(10.0206 0.230656 0)
(10.0608 0.383428 0)
(10.1214 0.530948 0)
(10.1996 0.670246 0)
(10.2925 0.799129 0)
(10.3973 0.916065 0)
(10.5109 1.02013 0)
(10.6299 1.11091 0)
(10.7515 1.18842 0)
(10.8728 1.25298 0)
(10.9913 1.30518 0)
(11.1049 1.34577 0)
(11.2119 1.37561 0)
(11.311 1.39567 0)
(11.4011 1.40692 0)
(11.4817 1.41036 0)
(11.5523 1.40695 0)
(11.6129 1.39762 0)
(11.6637 1.38323 0)
(11.7049 1.36458 0)
(11.737 1.34239 0)
(11.7604 1.31732 0)
(11.7757 1.28993 0)
(11.7836 1.26073 0)
(11.7846 1.23016 0)
(11.7794 1.19859 0)
(11.7685 1.16636 0)
(11.7526 1.13374 0)
(11.7322 1.10094 0)
(11.7078 1.06818 0)
(11.68 1.03561 0)
(11.6491 1.00335 0)
(11.6156 0.971516 0)
(11.5798 0.940188 0)
(11.5422 0.909432 0)
(11.503 0.879298 0)
(11.4625 0.849824 0)
(11.421 0.821034 0)
(11.3788 0.792945 0)
(11.3359 0.765566 0)
(11.2927 0.738899 0)
(11.2493 0.712941 0)
(11.2058 0.687684 0)
(11.1624 0.663118 0)
(11.1192 0.639226 0)
(11.0763 0.615994 0)
(11.0338 0.593402 0)
(10.9919 0.571431 0)
(10.9504 0.550058 0)
(10.9097 0.529263 0)
(10.8696 0.509022 0)
(10.8302 0.489311 0)
(10.7917 0.470107 0)
(10.7539 0.451386 0)
(10.7171 0.433124 0)
(10.6811 0.415295 0)