/*--------------------------------*- C++ -*----------------------------------*\
| =========                 |                                                 |
| \\      /  F ield         | OpenFOAM: The Open Source CFD Toolbox           |
|  \\    /   O peration     | Version:  2406                                  |
|   \\  /    A nd           | Website:  www.openfoam.com                      |
|    \\/     M anipulation  |                                                 |
\*---------------------------------------------------------------------------*/
FoamFile
{
    version     2.0;
    format      ascii;
    arch        "LSB;label=32;scalar=64";
    class       volVectorField;
    location    "200";
    object      U;
}
// * * * * * * * * * * * * * * * * * * * * * * * * * * * * * * * * * * * * * //

dimensions      [0 1 -1 0 0 0 0];

internalField   nonuniform List<vector> 
12225
(
(9.8915 0.0258282 0)
(9.77948 0.0276267 0)
(9.69464 0.0189017 0)
(9.6233 0.0143579 0)
(9.56451 0.0125412 0)
(9.51333 0.0115181 0)
(9.46679 0.0108276 0)
(9.42383 0.0103856 0)
(9.38361 0.0101487 0)
(9.34523 0.0101153 0)
(9.3077 0.0103292 0)
(9.27007 0.0108866 0)
(9.23046 0.0120035 0)
(9.18772 0.0141925 0)
(9.13081 0.018792 0)
(9.07056 0.0300328 0)
(8.84666 0.0938392 0)
(8.88168 -0.147309 0)
(9.99699 0.0295613 0)
(9.95642 0.0318112 0)
(9.88816 0.0240874 0)
(9.82161 0.0207889 0)
(9.76526 0.0189918 0)
(9.71576 0.0175947 0)
(9.67053 0.0166483 0)
(9.62869 0.0160803 0)
(9.58949 0.015815 0)
(9.55214 0.0158657 0)
(9.51582 0.0163069 0)
(9.47977 0.0173141 0)
(9.44255 0.0191828 0)
(9.40385 0.0229566 0)
(9.35641 0.0297244 0)
(9.31331 0.0508082 0)
(9.22715 0.0978006 0)
(9.30697 0.276311 0)
(10.0077 0.0334302 0)
(10.0105 0.0423442 0)
(9.98091 0.0378922 0)
(9.93785 0.0351122 0)
(9.89524 0.032733 0)
(9.85499 0.0306598 0)
(9.81663 0.0292393 0)
(9.7801 0.0283927 0)
(9.74513 0.0280276 0)
(9.71125 0.0281808 0)
(9.67784 0.0289758 0)
(9.64428 0.0306946 0)
(9.60938 0.0337663 0)
(9.5728 0.0396655 0)
(9.52992 0.0495972 0)
(9.48861 0.074894 0)
(9.43343 0.118634 0)
(9.45668 0.243902 0)
(10.0075 0.0288879 0)
(10.0254 0.0438231 0)
(10.022 0.0444528 0)
(10.0026 0.0441094 0)
(9.97755 0.0428149 0)
(9.95049 0.041145 0)
(9.92236 0.039874 0)
(9.894 0.0391422 0)
(9.86575 0.0389517 0)
(9.83753 0.0394044 0)
(9.80904 0.0406922 0)
(9.7799 0.0431921 0)
(9.74931 0.0474585 0)
(9.7171 0.0551041 0)
(9.68098 0.0675051 0)
(9.64617 0.0933277 0)
(9.60904 0.131214 0)
(9.61083 0.208466 0)
(10.0054 0.0234074 0)
(10.025 0.041028 0)
(10.0341 0.0453257 0)
(10.0307 0.0475678 0)
(10.0208 0.0482342 0)
(10.0069 0.0478671 0)
(9.98991 0.0474388 0)
(9.97102 0.0473362 0)
(9.95088 0.0477064 0)
(9.92974 0.0487463 0)
(9.90757 0.0507308 0)
(9.88427 0.054115 0)
(9.85944 0.0595409 0)
(9.8332 0.0685365 0)
(9.80488 0.0824728 0)
(9.77826 0.107082 0)
(9.75455 0.140527 0)
(9.75349 0.195061 0)
(10.0038 0.0188634 0)
(10.0205 0.037017 0)
(10.0334 0.0434804 0)
(10.0382 0.0475425 0)
(10.0379 0.0500076 0)
(10.0339 0.0511647 0)
(10.0264 0.0519235 0)
(10.0163 0.0527956 0)
(10.0041 0.0540307 0)
(9.99028 0.0559022 0)
(9.97489 0.0587554 0)
(9.95804 0.063094 0)
(9.93969 0.0695912 0)
(9.92022 0.0795628 0)
(9.89993 0.0942031 0)
(9.88182 0.116953 0)
(9.86873 0.146395 0)
(9.87051 0.186719 0)
(10.0026 0.0153001 0)
(10.0158 0.0329024 0)
(10.0285 0.0406037 0)
(10.0364 0.0457219 0)
(10.0409 0.0494229 0)
(10.0426 0.0518524 0)
(10.0416 0.053754 0)
(10.0381 0.0556596 0)
(10.0324 0.0578625 0)
(10.0249 0.060667 0)
(10.0157 0.0644509 0)
(10.005 0.0697226 0)
(9.993 0.0771249 0)
(9.98022 0.0877032 0)
(9.9675 0.102372 0)
(9.95724 0.122955 0)
(9.9523 0.14826 0)
(9.95774 0.178372 0)
(10.0018 0.0125173 0)
(10.0119 0.0290436 0)
(10.0232 0.0374419 0)
(10.0316 0.0431378 0)
(10.0378 0.047571 0)
(10.0422 0.0508931 0)
(10.0447 0.0536891 0)
(10.0453 0.0564703 0)
(10.044 0.0595442 0)
(10.0412 0.0632125 0)
(10.0369 0.0678448 0)
(10.0313 0.073911 0)
(10.0247 0.0819699 0)
(10.0178 0.0927856 0)
(10.0115 0.106959 0)
(10.0078 0.125258 0)
(10.0089 0.146581 0)
(10.0174 0.169524 0)
(10.0012 0.0103527 0)
(10.0089 0.0255648 0)
(10.0186 0.0343029 0)
(10.0266 0.0403284 0)
(10.033 0.0451748 0)
(10.0383 0.0490788 0)
(10.0423 0.0525053 0)
(10.045 0.0559328 0)
(10.0463 0.0596762 0)
(10.0464 0.064022 0)
(10.0455 0.069306 0)
(10.0436 0.0759301 0)
(10.0412 0.0843368 0)
(10.039 0.0950307 0)
(10.0377 0.108325 0)
(10.0389 0.124361 0)
(10.0441 0.142123 0)
(10.0548 0.159966 0)
(10.0009 0.00867168 0)
(10.0067 0.0224896 0)
(10.0148 0.0312933 0)
(10.0222 0.0375109 0)
(10.0283 0.042594 0)
(10.0337 0.0468761 0)
(10.0383 0.0507377 0)
(10.0418 0.0546133 0)
(10.0445 0.0588196 0)
(10.0463 0.0636249 0)
(10.0474 0.0693199 0)
(10.0481 0.0762259 0)
(10.0486 0.0846613 0)
(10.0496 0.0949145 0)
(10.0519 0.107073 0)
(10.0564 0.120948 0)
(10.0641 0.135634 0)
(10.0759 0.149707 0)
(10.0006 0.00735739 0)
(10.0051 0.0198013 0)
(10.0119 0.0284469 0)
(10.0185 0.0347487 0)
(10.0243 0.0399623 0)
(10.0295 0.0444897 0)
(10.0342 0.0486533 0)
(10.0381 0.0528341 0)
(10.0415 0.0573372 0)
(10.0443 0.0624092 0)
(10.0467 0.0682911 0)
(10.049 0.0752235 0)
(10.0515 0.0834106 0)
(10.0546 0.0929778 0)
(10.0591 0.10386 0)
(10.0656 0.115726 0)
(10.0746 0.127803 0)
(10.0866 0.139007 0)
(10.0005 0.00636914 0)
(10.0041 0.0176194 0)
(10.0098 0.0259738 0)
(10.0158 0.0322651 0)
(10.0213 0.0375295 0)
(10.0263 0.0421947 0)
(10.031 0.0465449 0)
(10.0351 0.050909 0)
(10.0388 0.0555694 0)
(10.0422 0.0607466 0)
(10.0454 0.0666351 0)
(10.0487 0.0734065 0)
(10.0524 0.0811774 0)
(10.0568 0.0899679 0)
(10.0625 0.099632 0)
(10.0699 0.109808 0)
(10.0794 0.119857 0)
(10.0911 0.128992 0)
(10.0004 0.0055574 0)
(10.0033 0.0156824 0)
(10.0081 0.0236259 0)
(10.0136 0.0298249 0)
(10.0188 0.0350838 0)
(10.0237 0.0398177 0)
(10.0283 0.0442826 0)
(10.0326 0.048757 0)
(10.0366 0.0534904 0)
(10.0405 0.0586733 0)
(10.0443 0.0644564 0)
(10.0483 0.0709519 0)
(10.0528 0.0782087 0)
(10.0582 0.0861787 0)
(10.0646 0.0946768 0)
(10.0725 0.103359 0)
(10.082 0.11171 0)
(10.0931 0.119177 0)
(10.0003 0.00479718 0)
(10.0026 0.0137313 0)
(10.0067 0.0210994 0)
(10.0116 0.0270821 0)
(10.0165 0.0322479 0)
(10.0213 0.0369675 0)
(10.0259 0.0414693 0)
(10.0304 0.0459769 0)
(10.0347 0.0506941 0)
(10.039 0.0557739 0)
(10.0434 0.0613209 0)
(10.0481 0.0673933 0)
(10.0533 0.0739842 0)
(10.0593 0.0810042 0)
(10.0662 0.08826 0)
(10.0742 0.0954572 0)
(10.0834 0.102207 0)
(10.0938 0.108155 0)
(10.0002 0.00406662 0)
(10.0021 0.0117633 0)
(10.0056 0.018393 0)
(10.01 0.024001 0)
(10.0146 0.0289496 0)
(10.0193 0.0335382 0)
(10.0239 0.0379607 0)
(10.0286 0.0423857 0)
(10.0332 0.046964 0)
(10.038 0.0518046 0)
(10.0429 0.0569689 0)
(10.0482 0.0624696 0)
(10.054 0.0682644 0)
(10.0604 0.0742469 0)
(10.0675 0.0802448 0)
(10.0755 0.0860297 0)
(10.0842 0.0913325 0)
(10.0937 0.0959501 0)
(10.0002 0.00334405 0)
(10.0018 0.00975353 0)
(10.0048 0.0154781 0)
(10.0087 0.020517 0)
(10.0131 0.0250798 0)
(10.0177 0.0293787 0)
(10.0225 0.0335619 0)
(10.0273 0.0377456 0)
(10.0323 0.042027 0)
(10.0375 0.0464702 0)
(10.0429 0.0510989 0)
(10.0486 0.0558957 0)
(10.0548 0.0608019 0)
(10.0614 0.0657176 0)
(10.0686 0.0705069 0)
(10.0763 0.0750109 0)
(10.0845 0.0790577 0)
(10.0931 0.0825492 0)
(10.0002 0.0025982 0)
(10.0016 0.00763227 0)
(10.0043 0.0122684 0)
(10.0079 0.0165116 0)
(10.0122 0.0204732 0)
(10.0168 0.0242794 0)
(10.0217 0.0280233 0)
(10.0268 0.0317722 0)
(10.0321 0.0355743 0)
(10.0376 0.0394545 0)
(10.0433 0.0434079 0)
(10.0494 0.047402 0)
(10.0557 0.0513775 0)
(10.0624 0.055255 0)
(10.0695 0.0589382 0)
(10.0768 0.0623282 0)
(10.0845 0.0653232 0)
(10.0923 0.0678902 0)
(10.0002 0.00177617 0)
(10.0015 0.00526221 0)
(10.004 0.008583 0)
(10.0077 0.0117697 0)
(10.0119 0.0148739 0)
(10.0166 0.0179461 0)
(10.0217 0.0210224 0)
(10.027 0.0241247 0)
(10.0325 0.027261 0)
(10.0383 0.0304245 0)
(10.0443 0.0335917 0)
(10.0505 0.0367246 0)
(10.0569 0.0397732 0)
(10.0636 0.0426801 0)
(10.0704 0.0453844 0)
(10.0773 0.0478293 0)
(10.0844 0.0499608 0)
(10.0915 0.0517788 0)
(10.0002 0.00078513 0)
(10.0015 0.00239197 0)
(10.0042 0.0040784 0)
(10.008 0.00590668 0)
(10.0125 0.00787529 0)
(10.0174 0.00996104 0)
(10.0227 0.0121437 0)
(10.0283 0.014405 0)
(10.0341 0.0167199 0)
(10.04 0.0190573 0)
(10.0462 0.0213812 0)
(10.0524 0.0236531 0)
(10.0588 0.0258324 0)
(10.0653 0.0278793 0)
(10.0718 0.029756 0)
(10.0783 0.0314317 0)
(10.0849 0.032878 0)
(10.0914 0.0341072 0)
(10.0002 -0.000249517 0)
(10.0018 -0.000599811 0)
(10.0049 -0.000582643 0)
(10.0091 -0.000108647 0)
(10.014 0.00074541 0)
(10.0193 0.00187396 0)
(10.025 0.0032086 0)
(10.0308 0.00469778 0)
(10.0368 0.00628976 0)
(10.043 0.00793277 0)
(10.0492 0.0095826 0)
(10.0555 0.0111992 0)
(10.0618 0.0127478 0)
(10.0682 0.0141962 0)
(10.0745 0.0155188 0)
(10.0808 0.0166944 0)
(10.087 0.0177069 0)
(10.0931 0.0185677 0)
(10.0002 -0.00125002 0)
(10.0022 -0.00343469 0)
(10.0059 -0.00485571 0)
(10.0108 -0.00544735 0)
(10.0162 -0.00543143 0)
(10.0219 -0.00500726 0)
(10.0279 -0.00427818 0)
(10.034 -0.00332223 0)
(10.0403 -0.00221823 0)
(10.0466 -0.00103466 0)
(10.0529 0.000177802 0)
(10.0592 0.00137816 0)
(10.0656 0.00253338 0)
(10.0718 0.00361479 0)
(10.078 0.00460145 0)
(10.0842 0.00547708 0)
(10.0902 0.00623001 0)
(10.0961 0.0068705 0)
(10.0003 -0.00237144 0)
(10.0029 -0.00649039 0)
(10.0075 -0.00921999 0)
(10.0132 -0.010663 0)
(10.0192 -0.0113011 0)
(10.0254 -0.0114229 0)
(10.0317 -0.0111478 0)
(10.0382 -0.010583 0)
(10.0447 -0.00983816 0)
(10.0511 -0.00899297 0)
(10.0575 -0.00810124 0)
(10.0639 -0.00720226 0)
(10.0702 -0.0063295 0)
(10.0765 -0.00550735 0)
(10.0826 -0.00475563 0)
(10.0886 -0.00408592 0)
(10.0944 -0.00350915 0)
(10.1001 -0.00301619 0)
(10.0004 -0.00372104 0)
(10.004 -0.00992948 0)
(10.0099 -0.0137632 0)
(10.0166 -0.0158106 0)
(10.0232 -0.0169301 0)
(10.0299 -0.0174462 0)
(10.0366 -0.0174758 0)
(10.0434 -0.0171712 0)
(10.05 -0.0166713 0)
(10.0566 -0.0160597 0)
(10.063 -0.0153867 0)
(10.0693 -0.0146914 0)
(10.0755 -0.0140054 0)
(10.0816 -0.0133521 0)
(10.0875 -0.0127476 0)
(10.0932 -0.012204 0)
(10.0987 -0.0117286 0)
(10.1041 -0.0113206 0)
(10.0007 -0.00545333 0)
(10.0057 -0.0138974 0)
(10.0133 -0.018497 0)
(10.0211 -0.0208793 0)
(10.0284 -0.0223204 0)
(10.0355 -0.0230717 0)
(10.0425 -0.0232506 0)
(10.0493 -0.0230724 0)
(10.0558 -0.0226964 0)
(10.062 -0.0221986 0)
(10.068 -0.0216249 0)
(10.0738 -0.021015 0)
(10.0793 -0.0203995 0)
(10.0845 -0.0198012 0)
(10.0895 -0.0192346 0)
(10.0943 -0.0187127 0)
(10.0988 -0.0182408 0)
(10.1032 -0.0178306 0)
(10.0011 -0.00778229 0)
(10.0085 -0.0184743 0)
(10.0182 -0.0233632 0)
(10.0269 -0.0258176 0)
(10.0344 -0.0273842 0)
(10.0414 -0.0281369 0)
(10.0478 -0.0282384 0)
(10.0535 -0.0279779 0)
(10.0586 -0.0275188 0)
(10.0631 -0.0269286 0)
(10.0672 -0.0262565 0)
(10.0709 -0.0255462 0)
(10.0742 -0.02483 0)
(10.0772 -0.0241298 0)
(10.08 -0.0234603 0)
(10.0825 -0.0228336 0)
(10.0847 -0.0222535 0)
(10.0868 -0.0217423 0)
(10.0019 -0.0110419 0)
(10.0127 -0.0236349 0)
(10.0244 -0.028193 0)
(10.0328 -0.0303931 0)
(10.0386 -0.0316638 0)
(10.043 -0.0319301 0)
(10.046 -0.0315228 0)
(10.0477 -0.0308095 0)
(10.0484 -0.0299448 0)
(10.0485 -0.0289921 0)
(10.0481 -0.0280054 0)
(10.0474 -0.0270274 0)
(10.0464 -0.0260834 0)
(10.0452 -0.0251886 0)
(10.0439 -0.0243512 0)
(10.0426 -0.0235758 0)
(10.0413 -0.0228599 0)
(10.0399 -0.0222215 0)
(10.0034 -0.0158252 0)
(10.0183 -0.029229 0)
(10.0292 -0.0323077 0)
(10.0324 -0.0334636 0)
(10.0309 -0.0335843 0)
(10.027 -0.032639 0)
(10.0215 -0.0312422 0)
(10.0148 -0.0297939 0)
(10.0076 -0.0283842 0)
(10.0003 -0.0270329 0)
(9.99308 -0.0257639 0)
(9.98609 -0.0245902 0)
(9.97937 -0.023513 0)
(9.97297 -0.022529 0)
(9.96689 -0.021634 0)
(9.96114 -0.0208199 0)
(9.95568 -0.0200758 0)
(9.95063 -0.0193814 0)
(10.0063 -0.0222186 0)
(10.0211 -0.0337775 0)
(10.0203 -0.0327514 0)
(10.0066 -0.0313011 0)
(9.98884 -0.0296084 0)
(9.97049 -0.0274442 0)
(9.95238 -0.0253776 0)
(9.93499 -0.0236277 0)
(9.91868 -0.0221271 0)
(9.90354 -0.0208077 0)
(9.88952 -0.0196413 0)
(9.87656 -0.018608 0)
(9.86457 -0.0176891 0)
(9.85348 -0.0168695 0)
(9.84322 -0.0161395 0)
(9.83371 -0.0154874 0)
(9.82489 -0.0149101 0)
(9.81677 -0.0143247 0)
(10.0087 -0.0235915 0)
(10.0012 -0.0295883 0)
(9.96576 -0.0230625 0)
(9.92353 -0.0192228 0)
(9.88607 -0.0171757 0)
(9.85386 -0.0154892 0)
(9.82532 -0.0140889 0)
(9.79978 -0.0129778 0)
(9.7769 -0.012057 0)
(9.75633 -0.0112627 0)
(9.73773 -0.0105706 0)
(9.72085 -0.00996606 0)
(9.70547 -0.00943494 0)
(9.69143 -0.0089662 0)
(9.67857 -0.0085547 0)
(9.66675 -0.00820093 0)
(9.65594 -0.0079228 0)
(9.64592 -0.00796078 0)
(9.92618 -0.0197521 0)
(9.84248 -0.0257245 0)
(9.78028 -0.0194698 0)
(9.72848 -0.0143683 0)
(9.68691 -0.0116613 0)
(9.65244 -0.0100805 0)
(9.62236 -0.0089971 0)
(9.59566 -0.0081905 0)
(9.57189 -0.00754463 0)
(9.55066 -0.00699733 0)
(9.53155 -0.00652222 0)
(9.51429 -0.00610725 0)
(9.49861 -0.00574322 0)
(9.48433 -0.00542253 0)
(9.47126 -0.00514091 0)
(9.45924 -0.00490595 0)
(9.4481 -0.00470045 0)
(9.43744 -0.00523131 0)
(-0.016028 0.0258258 -4.26538e-20)
(-0.024167 0.0270114 2.42336e-20)
(-0.0421471 0.0272943 0)
(-0.0610567 0.0276303 0)
(-0.0799522 0.0280177 0)
(-0.0990894 0.0283911 -2.43794e-20)
(-0.118623 0.0287297 0)
(-0.138543 0.0290344 0)
(-0.158817 0.0293081 0)
(-0.179422 0.0295525 0)
(-0.200339 0.0297696 2.4488e-20)
(-0.221555 0.0299609 0)
(-0.243055 0.0301285 0)
(-0.264825 0.0302734 0)
(-0.286851 0.030397 0)
(-0.309121 0.0304997 2.45471e-20)
(-0.331622 0.0305822 0)
(-0.354342 0.0306448 0)
(-0.377266 0.0306878 0)
(-0.400382 0.0307112 0)
(-0.423676 0.0307154 0)
(-0.447135 0.0307004 0)
(-0.470746 0.0306669 0)
(-0.494494 0.0306147 2.45775e-20)
(-0.518366 0.0305447 -2.45779e-20)
(-0.542349 0.030457 2.45778e-20)
(-0.566429 0.0303526 2.45773e-20)
(-0.590594 0.0302317 0)
(-0.614832 0.0300955 0)
(-0.639131 0.0299443 -2.45743e-20)
(-0.663478 0.0297794 -2.4573e-20)
(-0.687862 0.0296012 0)
(-0.712274 0.0294108 0)
(-0.736701 0.0292086 -2.45686e-20)
(-0.761134 0.0289961 0)
(-0.785564 0.0287733 0)
(-0.809981 0.0285417 2.45644e-20)
(-0.834375 0.0283014 0)
(-0.858739 0.0280536 2.45621e-20)
(-0.883065 0.0277984 4.91223e-20)
(-0.907344 0.027537 0)
(-0.931571 0.0272694 0)
(-0.955737 0.0269968 0)
(-0.979837 0.0267189 0)
(-1.00386 0.0264373 0)
(-1.02781 0.0261515 4.91169e-20)
(-1.05168 0.0258627 4.9117e-20)
(-1.07545 0.0255705 4.91174e-20)
(-1.09913 0.0252763 0)
(-1.1227 0.0249794 -4.91189e-20)
(-1.14617 0.0246807 0)
(-1.16952 0.0243796 4.91213e-20)
(-1.19275 0.0240767 4.91228e-20)
(-1.21586 0.0237713 0)
(-1.23884 0.0234643 0)
(-1.26169 0.0231551 0)
(-1.2844 0.0228441 4.91304e-20)
(-1.30696 0.0225305 0)
(-1.32937 0.022215 0)
(-1.35163 0.021897 0)
(-1.37372 0.0215765 0)
(-1.39565 0.0212527 0)
(-1.41741 0.020926 0)
(-1.43899 0.020596 0)
(-1.46038 0.0202625 0)
(-1.48158 0.0199249 -4.9151e-20)
(-1.50258 0.0195826 0)
(-1.52337 0.0192352 0)
(-1.54394 0.0188818 4.91559e-20)
(-1.56428 0.0185224 4.9157e-20)
(-1.5844 0.018156 0)
(-1.60426 0.0177826 -4.91576e-20)
(-1.62387 0.0174015 4.91569e-20)
(-1.64321 0.0170126 0)
(-1.66227 0.0166147 -4.9153e-20)
(-1.68103 0.016208 0)
(-1.69949 0.0157904 0)
(-1.71763 0.0153623 4.91378e-20)
(-1.73544 0.0149233 0)
(-1.75292 0.0144756 -4.91179e-20)
(-1.77006 0.0140176 0)
(-1.78684 0.0135518 4.90864e-20)
(-1.80328 0.0130782 4.90652e-20)
(-1.81934 0.0126009 4.90397e-20)
(-1.83505 0.0121177 9.8018e-20)
(-1.85039 0.0116328 -9.7945e-20)
(-1.86539 0.0111457 0)
(-1.88007 0.0106651 0)
(-1.89445 0.0101946 0)
(-1.90856 0.00974065 -9.74934e-20)
(-1.92239 0.0093123 -9.73316e-20)
(-1.93596 0.00890974 9.71463e-20)
(-1.94933 0.0085398 0)
(-1.96255 0.00820689 -9.66951e-20)
(-1.9757 0.00792029 -9.6424e-20)
(-1.98884 0.00768533 -9.61192e-20)
(-2.00206 0.00751188 0)
(-2.01545 0.00740559 0)
(-2.02912 0.00737676 0)
(-2.04317 0.00743255 -9.45152e-20)
(-2.05774 0.00758334 0)
(-2.07295 0.00783756 0)
(-2.08896 0.00820027 9.28594e-20)
(-2.10592 0.00867943 0)
(-2.12403 0.00927305 0)
(-2.14349 0.00999229 9.07871e-20)
(-2.16448 0.0108327 0)
(-2.18721 0.0118082 0)
(-2.21187 0.0129112 -8.83167e-20)
(-2.23863 0.014154 -8.74177e-20)
(-2.2677 0.0155233 0)
(-2.29926 0.0170278 8.55341e-20)
(-2.33349 0.0186484 0)
(-2.37055 0.0203896 -8.35809e-20)
(-2.41062 0.0222266 0)
(-2.45382 0.0241584 -8.1623e-20)
(-2.5003 0.0261549 -8.06669e-20)
(-2.55016 0.0282113 0)
(-2.60349 0.030298 0)
(-2.6603 0.032407 0)
(-2.7206 0.0345049 0)
(-2.78437 0.036574 0)
(-2.85162 0.038575 0)
(-2.92231 0.0404953 0)
(-2.99636 0.0422994 -7.51346e-20)
(-3.07366 0.0439845 7.48806e-20)
(-3.15404 0.0455197 0)
(-3.2373 0.0469052 0)
(-3.32322 0.0481153 0)
(-3.41156 0.0491529 0)
(-3.50206 0.0499993 1.51278e-19)
(-3.59443 0.0506607 0)
(-3.68838 0.0511256 -1.53832e-19)
(-3.78361 0.0514026 1.55503e-19)
(-3.87981 0.0514867 0)
(-3.97668 0.0513878 0)
(-4.07388 0.0511074 0)
(-4.17113 0.0506567 -1.64441e-19)
(-4.2681 0.0500416 -1.67136e-19)
(-4.3645 0.0492727 0)
(-4.46003 0.0483589 -1.72905e-19)
(-4.55444 0.0473115 -1.75929e-19)
(-4.64746 0.0461425 1.79011e-19)
(-4.73884 0.0448654 0)
(-4.82836 0.0434946 0)
(-4.91581 0.0420448 1.88365e-19)
(-5.00097 0.0405306 0)
(-5.08367 0.0389658 0)
(-5.16375 0.0373616 0)
(-5.24103 0.0357269 0)
(-5.31538 0.0340662 -2.03008e-19)
(-5.38666 0.0323799 -2.05627e-19)
(-5.45475 0.0306636 0)
(-5.51953 0.0289093 -2.10431e-19)
(-5.58088 0.027106 0)
(-5.6387 0.0252423 0)
(-5.69287 0.0233078 -2.16362e-19)
(-5.74328 0.0212966 0)
(-5.7898 0.0192075 -2.19343e-19)
(-5.83229 0.0170453 0)
(-5.87055 0.0148163 0)
(-5.90433 0.0125257 -2.22245e-19)
(-5.93325 0.010177 0)
(-5.95682 0.00777842 -2.23148e-19)
(-5.97452 0.00535019 0)
(-5.98578 0.00302506 0)
(-5.99153 0.000797914 0)
(-5.99164 -0.00149229 2.2175e-19)
(-5.98579 -0.00390537 0)
(-5.97354 -0.00648393 -2.19234e-19)
(-5.95438 -0.00928266 0)
(-5.92766 -0.0123876 0)
(-5.89227 -0.0159605 0)
(-5.84631 -0.020343 0)
(-5.78777 -0.0262766 0)
(-5.71719 -0.0351465 0)
(-5.63535 -0.0492384 0)
(-5.52012 -0.0745253 3.86513e-19)
(-5.30767 -0.133567 0)
(-5.01159 -0.2768 0)
(-0.0185298 0.0511295 1.08634e-19)
(-0.0270104 0.052604 -6.60758e-20)
(-0.0461746 0.0537332 0)
(-0.0660945 0.054699 4.40797e-20)
(-0.0860515 0.0555591 0)
(-0.106322 0.0563215 2.20746e-20)
(-0.127034 0.0569907 -4.40763e-20)
(-0.14816 0.0575761 -4.40672e-20)
(-0.169661 0.0580872 0)
(-0.191509 0.0585317 -4.40374e-20)
(-0.213686 0.0589164 -2.20442e-20)
(-0.236172 0.0592463 0)
(-0.258949 0.0595259 0)
(-0.282002 0.0597581 0)
(-0.305313 0.0599455 0)
(-0.328866 0.0600896 -2.19747e-20)
(-0.352647 0.060192 0)
(-0.37664 0.0602533 4.38084e-20)
(-0.400829 0.0602745 0)
(-0.425199 0.0602559 0)
(-0.449734 0.0601985 -4.36944e-20)
(-0.474419 0.0601026 0)
(-0.499238 0.0599696 4.36143e-20)
(-0.524176 0.0598 -2.1821e-20)
(-0.549217 0.0595953 2.18001e-20)
(-0.574347 0.0593563 -2.17793e-20)
(-0.599551 0.0590849 -2.17583e-20)
(-0.624817 0.0587823 0)
(-0.65013 0.0584504 0)
(-0.675477 0.0580904 2.1696e-20)
(-0.700847 0.0577046 -2.16121e-20)
(-0.726227 0.0572941 0)
(-0.751606 0.0568612 0)
(-0.776974 0.0564069 2.16155e-20)
(-0.802319 0.0559336 0)
(-0.827632 0.0554421 0)
(-0.852904 0.0549347 -2.15578e-20)
(-0.878125 0.0544121 0)
(-0.903288 0.0538764 2.1464e-20)
(-0.928384 0.0533281 -4.30059e-20)
(-0.953405 0.0527693 0)
(-0.978346 0.0522001 0)
(-1.0032 0.0516226 -8.56961e-20)
(-1.02796 0.0510369 -8.56306e-20)
(-1.05262 0.0504448 -8.55662e-20)
(-1.07717 0.0498463 4.27002e-20)
(-1.10161 0.049243 -4.27706e-20)
(-1.12594 0.0486346 -1.28118e-19)
(-1.15014 0.0480226 8.5318e-20)
(-1.17421 0.0474067 4.26772e-20)
(-1.19815 0.046788 0)
(-1.22195 0.0461658 -4.26169e-20)
(-1.24561 0.0455411 4.24954e-20)
(-1.26911 0.0449132 0)
(-1.29246 0.044283 0)
(-1.31566 0.04365 0)
(-1.33868 0.0430147 -4.24713e-20)
(-1.36154 0.0423762 0)
(-1.38422 0.0417353 8.47453e-20)
(-1.40673 0.0410914 0)
(-1.42904 0.0404444 8.46353e-20)
(-1.45117 0.0397937 0)
(-1.4731 0.0391394 -8.45256e-20)
(-1.49482 0.0384813 0)
(-1.51633 0.037819 8.44158e-20)
(-1.53763 0.0371522 -4.21432e-20)
(-1.5587 0.0364801 0)
(-1.57954 0.0358025 -8.42491e-20)
(-1.60013 0.0351186 -4.21312e-20)
(-1.62048 0.0344285 -4.21017e-20)
(-1.64056 0.0337312 0)
(-1.66038 0.0330272 -4.19766e-20)
(-1.67993 0.0323157 -4.201e-20)
(-1.69918 0.0315977 0)
(-1.71812 0.0308723 4.19446e-20)
(-1.73676 0.0301409 -8.37635e-20)
(-1.75507 0.0294022 0)
(-1.77306 0.028658 -4.1836e-20)
(-1.79071 0.027909 0)
(-1.80802 0.0271588 1.25213e-19)
(-1.82498 0.0264072 0)
(-1.84159 0.0256591 -1.24934e-19)
(-1.85786 0.0249161 -4.16043e-20)
(-1.87377 0.0241856 4.15142e-20)
(-1.88935 0.0234678 8.29094e-20)
(-1.90459 0.0227713 -8.27787e-20)
(-1.91953 0.0220978 0)
(-1.93419 0.0214593 0)
(-1.94862 0.0208596 0)
(-1.96284 0.0203103 2.46312e-19)
(-1.97686 0.0198224 8.18788e-20)
(-1.99072 0.0194034 -8.16258e-20)
(-2.00448 0.0190647 0)
(-2.01821 0.0188139 -8.10646e-20)
(-2.03199 0.0186645 8.07022e-20)
(-2.04591 0.0186247 8.03317e-20)
(-2.06007 0.0187085 0)
(-2.07458 0.0189241 0)
(-2.08955 0.0192851 0)
(-2.10511 0.0197996 7.84816e-20)
(-2.1214 0.0204815 0)
(-2.13856 0.0213404 -1.54701e-19)
(-2.15676 0.0223838 -2.30081e-19)
(-2.17617 0.0236194 1.52032e-19)
(-2.19698 0.0250436 0)
(-2.21942 0.0266644 7.45379e-20)
(-2.24366 0.0284728 0)
(-2.26993 0.0304792 1.45705e-19)
(-2.29841 0.0326707 -7.1975e-20)
(-2.3293 0.0350557 -7.10543e-20)
(-2.36277 0.0376135 0)
(-2.39901 0.0403481 -2.07538e-19)
(-2.4382 0.0432307 1.36409e-19)
(-2.48049 0.0462605 6.72923e-20)
(-2.52602 0.0494013 0)
(-2.57492 0.0526461 6.54068e-20)
(-2.62729 0.05595 1.9327e-19)
(-2.68321 0.0592987 0)
(-2.74273 0.0626488 1.25282e-19)
(-2.80581 0.0659878 1.2369e-19)
(-2.87242 0.0692708 1.2223e-19)
(-2.9425 0.0724768 0)
(-3.01598 0.0755482 0)
(-3.09277 0.078466 0)
(-3.17275 0.0811752 -5.88473e-20)
(-3.25572 0.0836713 -5.90318e-20)
(-3.34146 0.0859079 0)
(-3.42973 0.087887 -1.17353e-19)
(-3.52024 0.0895693 -1.17598e-19)
(-3.61269 0.0909622 0)
(-3.70678 0.0920359 -1.19302e-19)
(-3.80218 0.0928026 -2.3976e-19)
(-3.89857 0.0932434 1.21556e-19)
(-3.99562 0.0933745 1.22248e-19)
(-4.09299 0.0931875 0)
(-4.19036 0.0927009 0)
(-4.28741 0.0919166 0)
(-4.38383 0.0908548 1.31035e-19)
(-4.47931 0.089526 -1.32873e-19)
(-4.57356 0.0879501 -2.71481e-19)
(-4.66633 0.0861426 1.38669e-19)
(-4.75736 0.0841223 -1.40957e-19)
(-4.84641 0.0819071 -1.4421e-19)
(-4.93328 0.079516 0)
(-5.01776 0.0769681 0)
(-5.09967 0.0742822 1.52473e-19)
(-5.17884 0.0714771 0)
(-5.25513 0.0685707 0)
(-5.32838 0.0655799 -3.21991e-19)
(-5.39848 0.0625198 0)
(-5.4653 0.0594039 -1.6615e-19)
(-5.52873 0.0562431 1.68717e-19)
(-5.58867 0.0530462 0)
(-5.64502 0.0498184 -1.7314e-19)
(-5.69768 0.0465624 0)
(-5.74656 0.0432769 0)
(-5.79155 0.0399576 1.78862e-19)
(-5.83255 0.0365958 -3.60798e-19)
(-5.86944 0.0331793 1.8176e-19)
(-5.9021 0.0296924 0)
(-5.93043 0.026116 0)
(-5.95436 0.0224293 -1.84833e-19)
(-5.97391 0.0186175 0)
(-5.98924 0.0146846 -1.85794e-19)
(-6.00054 0.0106693 0)
(-6.00803 0.00669448 0)
(-6.01037 0.00274649 0)
(-6.00703 -0.00132765 -1.83757e-19)
(-5.99755 -0.00560889 0)
(-5.98147 -0.0101604 1.81102e-19)
(-5.95824 -0.0150536 0)
(-5.9271 -0.0203743 0)
(-5.88692 -0.0262478 -3.49861e-19)
(-5.83586 -0.0329388 3.4383e-19)
(-5.77226 -0.041127 0)
(-5.69684 -0.0517159 0)
(-5.61037 -0.0633529 0)
(-5.49781 -0.0712532 -9.34331e-19)
(-5.32467 -0.0915511 0)
(-5.11987 -0.21312 5.31715e-19)
(-0.018086 0.0953407 5.53802e-23)
(-0.0274645 0.0974858 8.76789e-20)
(-0.0477643 0.0994422 0)
(-0.0687358 0.101163 -8.77112e-20)
(-0.0896279 0.102682 0)
(-0.110776 0.104022 0)
(-0.132328 0.105197 -4.60584e-23)
(-0.154265 0.106223 4.37669e-20)
(-0.176553 0.107114 4.3789e-20)
(-0.199168 0.107884 4.37142e-20)
(-0.222092 0.108542 0)
(-0.245306 0.109099 0)
(-0.268793 0.10956 -4.36635e-20)
(-0.292536 0.109931 -8.72532e-20)
(-0.316516 0.110217 8.71759e-20)
(-0.340719 0.110421 0)
(-0.365126 0.110545 8.70128e-20)
(-0.389721 0.110591 -4.34145e-20)
(-0.414489 0.110562 0)
(-0.439412 0.110458 8.67534e-20)
(-0.464474 0.110281 4.32824e-20)
(-0.48966 0.110034 -8.65754e-20)
(-0.514954 0.109717 -4.31929e-20)
(-0.540339 0.109334 0)
(-0.565802 0.108886 8.63074e-20)
(-0.591326 0.108377 8.6219e-20)
(-0.616899 0.107809 0)
(-0.642506 0.107185 8.60449e-20)
(-0.668136 0.106508 0)
(-0.693774 0.105782 8.58755e-20)
(-0.719411 0.10501 4.28476e-20)
(-0.745034 0.104196 0)
(-0.770633 0.103341 0)
(-0.796199 0.10245 0)
(-0.82172 0.101526 0)
(-0.847189 0.100571 0)
(-0.872596 0.0995884 0)
(-0.897933 0.0985806 8.52608e-20)
(-0.923193 0.0975503 -1.27742e-19)
(-0.948369 0.0964998 0)
(-0.973454 0.0954312 0)
(-0.998443 0.0943465 0)
(-1.02333 0.0932478 -8.63273e-23)
(-1.0481 0.0921367 8.47853e-20)
(-1.07277 0.0910149 1.69537e-19)
(-1.09731 0.0898837 -1.69422e-19)
(-1.12173 0.0887446 -8.46949e-20)
(-1.14602 0.0875985 8.45588e-20)
(-1.17018 0.0864464 7.87832e-23)
(-1.1942 0.085289 8.453e-20)
(-1.21807 0.0841271 0)
(-1.24179 0.0829607 8.4425e-20)
(-1.26537 0.0817903 7.35693e-23)
(-1.28878 0.0806161 0)
(-1.31203 0.0794382 0)
(-1.33512 0.0782567 -8.42242e-20)
(-1.35803 0.0770713 0)
(-1.38077 0.0758819 0)
(-1.40333 0.0746884 8.41454e-20)
(-1.42571 0.0734905 1.68064e-19)
(-1.44789 0.0722874 -8.39216e-20)
(-1.46988 0.0710788 0)
(-1.49168 0.0698642 8.38303e-20)
(-1.51326 0.0686433 0)
(-1.53463 0.0674151 8.38568e-20)
(-1.55579 0.0661793 8.36933e-20)
(-1.57672 0.0649346 -1.67408e-19)
(-1.59741 0.0636807 -8.37126e-20)
(-1.61787 0.0624163 0)
(-1.63809 0.0611416 1.6712e-19)
(-1.65804 0.0598557 0)
(-1.67774 0.0585587 2.50328e-19)
(-1.69716 0.0572503 1.66816e-19)
(-1.7163 0.0559316 1.66709e-19)
(-1.73515 0.0546026 -1.66598e-19)
(-1.7537 0.0532646 2.49672e-19)
(-1.77193 0.0519179 0)
(-1.78985 0.0505657 0)
(-1.80744 0.0492105 -1.66092e-19)
(-1.82471 0.0478572 -2.48864e-19)
(-1.84165 0.0465088 0)
(-1.85826 0.0451726 8.27527e-20)
(-1.87455 0.0438544 0)
(-1.8905 0.0425637 -2.47754e-19)
(-1.90613 0.041307 1.0373e-22)
(-1.92146 0.0400965 -1.04797e-22)
(-1.9365 0.0389417 1.64425e-19)
(-1.95129 0.0378584 0)
(-1.96587 0.0368592 -1.63742e-19)
(-1.98027 0.0359626 1.08685e-22)
(-1.9945 0.0351859 0)
(-2.00859 0.0345471 0)
(-2.0226 0.0340629 0)
(-2.03662 0.033753 1.61122e-19)
(-2.05072 0.0336359 0)
(-2.06499 0.0337322 0)
(-2.07953 0.0340612 0)
(-2.09444 0.0346426 0)
(-2.10985 0.0354953 0)
(-2.12587 0.0366374 1.56021e-19)
(-2.14265 0.0380885 0)
(-2.16034 0.0398629 1.53539e-19)
(-2.17908 0.0419747 1.5221e-19)
(-2.19906 0.0444268 -1.50791e-19)
(-2.22048 0.0472244 0)
(-2.24353 0.0503643 -1.47695e-19)
(-2.26841 0.0538479 0)
(-2.29532 0.0576696 -1.44278e-19)
(-2.32444 0.0618245 1.42466e-19)
(-2.35595 0.0662984 4.2169e-19)
(-2.39002 0.0710754 0)
(-2.42683 0.0761305 4.09995e-19)
(-2.46654 0.0814355 1.34527e-19)
(-2.50928 0.0869552 0)
(-2.55517 0.0926498 2.61312e-19)
(-2.60434 0.0984732 2.57406e-19)
(-2.65685 0.104371 -3.80604e-19)
(-2.71277 0.110289 0)
(-2.77212 0.116174 -1.23474e-19)
(-2.83485 0.121975 -1.21877e-19)
(-2.9009 0.127633 -3.60785e-19)
(-2.97019 0.133086 0)
(-3.04267 0.13826 0)
(-3.11821 0.143097 0)
(-3.19667 0.147538 -1.15948e-19)
(-3.27786 0.151545 0)
(-3.36154 0.155075 0)
(-3.44748 0.158104 1.15705e-19)
(-3.53539 0.160598 1.15993e-19)
(-3.62498 0.162547 0)
(-3.71595 0.163932 0)
(-3.80801 0.164757 2.36859e-19)
(-3.90083 0.165014 0)
(-3.99411 0.164719 -2.42636e-19)
(-4.08753 0.163879 -2.46311e-19)
(-4.18079 0.162518 0)
(-4.2736 0.160653 0)
(-4.36566 0.158316 2.59644e-19)
(-4.45669 0.155534 -2.92819e-22)
(-4.54644 0.15234 -3.33477e-22)
(-4.63464 0.148765 0)
(-4.72107 0.144842 5.62577e-19)
(-4.80552 0.140604 0)
(-4.88778 0.136083 0)
(-4.96766 0.131312 0)
(-5.04499 0.126322 -3.04863e-19)
(-5.11962 0.121143 0)
(-5.19139 0.115803 6.34373e-19)
(-5.26016 0.110329 3.22399e-19)
(-5.32583 0.104743 0)
(-5.38826 0.0990662 3.3338e-19)
(-5.44736 0.0933161 0)
(-5.50302 0.0875071 0)
(-5.55515 0.0816495 1.04552e-18)
(-5.60366 0.075751 -7.06079e-19)
(-5.64846 0.0698147 0)
(-5.68948 0.0638406 -7.21656e-19)
(-5.72663 0.0578236 3.63778e-19)
(-5.75982 0.0517564 0)
(-5.78898 0.0456278 0)
(-5.81404 0.0394269 0)
(-5.83492 0.0331427 1.12169e-18)
(-5.85153 0.0267666 0)
(-5.86373 0.0202858 3.76058e-19)
(-5.87129 0.0136826 0)
(-5.87389 0.0068826 0)
(-5.87104 -0.000185176 0)
(-5.8624 -0.00756504 0)
(-5.84755 -0.0153414 0)
(-5.82602 -0.0236202 0)
(-5.79728 -0.0325378 7.2702e-19)
(-5.76067 -0.0422731 0)
(-5.71516 -0.0530921 3.53599e-19)
(-5.65927 -0.0655157 -1.04317e-18)
(-5.59185 -0.0807385 0)
(-5.51365 -0.100516 0)
(-5.42433 -0.12437 6.48399e-19)
(-5.3115 -0.147705 6.2572e-19)
(-5.15713 -0.182676 -5.9068e-19)
(-4.99223 -0.293947 -5.28889e-19)
(-0.0190432 0.136494 -2.14024e-19)
(-0.02874 0.13936 -1.30958e-19)
(-0.0498328 0.141928 -8.73589e-20)
(-0.0715973 0.144208 -4.36894e-20)
(-0.0932717 0.146231 0)
(-0.115199 0.14802 8.72097e-20)
(-0.137523 0.149592 -4.36105e-20)
(-0.160218 0.150963 0)
(-0.183242 0.152151 -4.34749e-20)
(-0.20657 0.15317 0)
(-0.230179 0.154033 8.6867e-20)
(-0.25405 0.154751 0)
(-0.278161 0.155332 4.3313e-20)
(-0.302495 0.155784 8.65371e-20)
(-0.327032 0.156113 -8.64461e-20)
(-0.351755 0.156324 0)
(-0.376644 0.15642 -8.62594e-20)
(-0.401683 0.156404 0)
(-0.426854 0.15628 0)
(-0.452142 0.156049 -8.59745e-20)
(-0.477528 0.155716 0)
(-0.502997 0.155283 -8.17416e-23)
(-0.528534 0.154753 0)
(-0.554122 0.154131 0)
(-0.579748 0.153419 8.3474e-23)
(-0.605398 0.152622 -8.54228e-20)
(-0.631058 0.151745 -8.54205e-20)
(-0.656716 0.150792 -8.52519e-20)
(-0.68236 0.149768 0)
(-0.707979 0.148677 -1.70264e-19)
(-0.733562 0.147524 0)
(-0.7591 0.146315 -8.5021e-20)
(-0.784583 0.145052 0)
(-0.810003 0.143742 0)
(-0.835351 0.142387 8.48084e-20)
(-0.860619 0.140993 0)
(-0.8858 0.139564 -8.46782e-20)
(-0.910888 0.138101 8.22558e-23)
(-0.935876 0.136611 1.69032e-19)
(-0.960759 0.135094 -1.68999e-19)
(-0.985531 0.133555 0)
(-1.01019 0.131997 0)
(-1.03472 0.130421 -8.44175e-20)
(-1.05913 0.128831 0)
(-1.08341 0.127227 -8.41633e-20)
(-1.10756 0.125613 8.41174e-20)
(-1.13157 0.12399 8.4073e-20)
(-1.15544 0.122359 0)
(-1.17916 0.120722 -8.39883e-20)
(-1.20273 0.119079 -8.39478e-20)
(-1.22615 0.117431 1.6796e-19)
(-1.24942 0.11578 -8.387e-20)
(-1.27252 0.114125 -8.38325e-20)
(-1.29546 0.112466 0)
(-1.31823 0.110804 0)
(-1.34083 0.109139 8.37247e-20)
(-1.36325 0.10747 0)
(-1.3855 0.105797 0)
(-1.40757 0.104119 -1.67244e-19)
(-1.42944 0.102437 -1.67178e-19)
(-1.45113 0.100749 0)
(-1.47263 0.0990552 0)