/*--------------------------------*- C++ -*----------------------------------*\
| =========                 |                                                 |
| \\      /  F ield         | OpenFOAM: The Open Source CFD Toolbox           |
|  \\    /   O peration     | Version:  2406                                  |
|   \\  /    A nd           | Website:  www.openfoam.com                      |
|    \\/     M anipulation  |                                                 |
\*---------------------------------------------------------------------------*/
FoamFile
{
    version     2.0;
    format      ascii;
    arch        "LSB;label=32;scalar=64";
    class       volScalarField;
    location    "281";
    object      epsilon;
}
// * * * * * * * * * * * * * * * * * * * * * * * * * * * * * * * * * * * * * //

dimensions      [0 2 -3 0 0 0 0];

internalField   nonuniform List<scalar> 
12225
(
1086.12
2467.51
3645.54
4414.76
4812.17
4980.55
4972.22
4932.36
4837.75
4728.38
4620.49
4517.16
4425.49
4339.5
4269.03
4198.38
4150.99
4085.21
79.1873
262.721
438.67
584.48
691.153
762.919
804.744
829.979
846.785
856.866
866.584
873.736
882.999
890.97
900.644
910.047
918.921
933.02
23.7078
50.3395
83.3002
112.495
136.909
156.199
170.146
179.903
186.373
190.792
193.485
195.625
196.863
198.387
199.321
201.032
201.389
206.432
17.0587
21.2942
30.0053
38.4958
46.2153
53.0389
58.6207
63.2645
66.7554
69.6472
71.6133
73.3331
74.3192
75.3431
75.7316
76.4021
76.4517
77.4272
15.2882
16.097
18.5521
21.5028
24.4419
27.2627
29.7361
31.9834
33.8188
35.4796
36.7453
37.9277
38.7449
39.5754
40.0582
40.6404
40.9049
41.377
14.843
14.9042
15.5187
16.4543
17.6096
18.8292
19.9697
21.0769
22.0337
22.9483
23.6897
24.4159
24.9564
25.5273
25.8934
26.3473
26.5706
26.9703
14.7701
14.6429
14.7016
14.8628
15.2236
15.6844
16.1629
16.6724
17.1383
17.6109
18.0104
18.4208
18.7385
19.0878
19.3217
19.622
19.7743
20.0686
14.767
14.5928
14.4733
14.4195
14.4433
14.5146
14.6475
14.8246
15.0022
15.2023
15.3792
15.5761
15.7326
15.9149
16.0402
16.207
16.2967
16.4697
14.7668
14.5926
14.4351
14.3028
14.2032
14.137
14.0972
14.0987
14.1106
14.1415
14.1782
14.2346
14.2793
14.3426
14.3854
14.449
14.4867
14.5562
14.7661
14.5944
14.4321
14.2828
14.1466
14.0296
13.9256
13.8437
13.7744
13.7224
13.6771
13.6482
13.6204
13.6063
13.5892
13.5834
13.5732
13.5818
14.7658
14.5946
14.4323
14.2806
14.137
14.0051
13.8816
13.7705
13.6679
13.5777
13.4938
13.4219
13.3537
13.2971
13.2406
13.1972
13.1473
13.1179
14.7657
14.5944
14.4322
14.2801
14.1357
14.0007
13.8728
13.754
13.6417
13.5385
13.4409
13.3523
13.2677
13.1922
13.1185
13.0549
12.9895
12.9368
14.7657
14.5941
14.4321
14.2796
14.1353
13.9995
13.8707
13.7496
13.6347
13.5271
13.4247
13.3294
13.2383
13.1542
13.0731
12.999
12.9266
12.8616
14.7657
14.594
14.4319
14.2792
14.1349
13.9987
13.8698
13.7481
13.6326
13.5236
13.4201
13.3224
13.2294
13.1417
13.0581
12.9795
12.9043
12.8337
14.7657
14.5938
14.4317
14.2789
14.1345
13.9981
13.8691
13.7471
13.6315
13.5221
13.4183
13.32
13.2265
13.1379
13.0536
12.9737
12.8975
12.8253
14.7657
14.5938
14.4316
14.2786
14.1341
13.9976
13.8685
13.7463
13.6306
13.5211
13.4171
13.3185
13.2249
13.136
13.0515
12.9713
12.8948
12.8222
14.7657
14.5937
14.4315
14.2784
14.1338
13.9972
13.868
13.7457
13.6299
13.5202
13.4162
13.3174
13.2237
13.1347
13.0501
12.9696
12.8931
12.8203
14.7657
14.5937
14.4314
14.2783
14.1336
13.9969
13.8677
13.7453
13.6294
13.5196
13.4155
13.3167
13.2228
13.1337
13.049
12.9685
12.8919
12.819
14.7657
14.5937
14.4314
14.2782
14.1336
13.9969
13.8675
13.7451
13.6292
13.5194
13.4152
13.3163
13.2224
13.1333
13.0485
12.9679
12.8913
12.8184
14.7657
14.5937
14.4315
14.2783
14.1337
13.997
13.8677
13.7453
13.6294
13.5196
13.4154
13.3166
13.2227
13.1336
13.0489
12.9683
12.8917
12.8188
14.7657
14.5937
14.4316
14.2785
14.1339
13.9972
13.868
13.7457
13.63
13.5202
13.4163
13.3176
13.2241
13.1352
13.051
12.9708
12.8948
12.8224
14.7658
14.5938
14.4317
14.2786
14.1343
13.9977
13.869
13.7473
13.6325
13.524
13.4219
13.3252
13.2344
13.1482
13.0676
12.9907
12.9192
12.8504
14.766
14.5936
14.432
14.2789
14.1361
14.0021
13.8782
13.7628
13.6573
13.5595
13.4707
13.3883
13.3141
13.2446
13.1829
13.1237
13.0729
13.0213
14.7664
14.5919
14.4339
14.2872
14.1626
14.0553
13.9688
13.8977
13.8459
13.8048
13.7783
13.758
13.7483
13.7412
13.7424
13.7433
13.7528
13.7515
14.7635
14.5927
14.4798
14.4111
14.4198
14.4675
14.5528
14.67
14.8168
14.9612
15.1237
15.2711
15.4319
15.5683
15.7196
15.8372
15.978
16.0719
14.7559
14.7332
14.9889
15.3353
15.9215
16.5509
17.2338
17.878
18.5377
19.1217
19.7127
20.2096
20.72
21.1248
21.5587
21.8755
22.2452
22.4805
15.1561
15.9275
18.0403
20.4321
22.9267
25.2658
27.5468
29.5525
31.4906
33.1025
34.6855
35.9137
37.1756
38.0656
39.0608
39.6723
40.4608
40.8521
17.6818
25.6331
36.6751
46.5427
55.8658
64.2726
72.1009
78.7408
84.8016
89.59
94.0125
97.1742
100.312
102.189
104.451
105.414
107.132
107.488
45.5096
105.214
164.441
217.229
267.838
313.448
353.657
386.102
413.216
433.649
450.586
462.692
472.88
479.758
486.797
490.285
496.128
497.462
632.296
1081.11
1534.74
1880.99
2183.47
2431.77
2631.53
2773.03
2876.15
2932.21
2969.07
2970.17
2963.16
2946.23
2918.32
2885.07
2849.27
2811.95
0.170463
0.171317
0.296682
0.433942
0.567371
0.69045
0.801588
0.901082
0.990249
1.07634
1.16398
1.25418
1.34965
1.45281
1.56512
1.68694
1.81831
1.96025
2.1181
2.3077
2.55256
2.85395
3.20586
3.60986
4.07282
4.60396
5.21381
5.91274
6.70996
7.61072
8.61737
9.73377
10.9611
12.2978
13.7436
15.2966
16.9562
18.7211
20.5909
22.5655
24.6461
26.8352
29.1374
31.5602
34.1154
36.8204
39.7012
42.7963
46.0275
49.4111
52.9438
56.6346
60.4853
64.5018
68.6878
73.0484
77.5874
82.3097
87.2191
92.3199
97.6157
103.11
108.807
114.709
120.818
127.138
133.669
140.414
147.372
154.546
161.935
169.537
177.353
185.38
193.615
202.057
210.7
219.541
228.575
237.795
247.196
256.77
266.51
276.406
286.45
296.631
306.938
317.361
327.886
338.501
349.19
359.938
370.728
381.54
392.353
403.145
413.89
424.559
435.126
445.568
455.879
466.097
476.243
486.218
496.056
505.725
515.218
524.514
533.598
542.453
551.063
559.412
567.484
575.264
582.737
589.889
596.706
603.176
609.286
615.026
620.382
625.347
629.908
634.059
637.792
641.103
643.984
646.433
648.446
650.018
651.139
651.858
652.184
651.989
651.295
650.151
648.681
646.842
644.512
641.789
638.662
635.146
631.252
626.992
622.381
617.427
612.145
606.549
600.653
594.474
588.026
581.326
574.391
567.237
559.881
552.34
544.631
536.773
528.783
520.68
512.481
504.21
495.895
487.591
479.528
473.6
470.2
467.066
463.932
460.772
457.589
454.386
451.158
447.892
444.557
441.072
437.283
432.713
426.467
402.228
0.662822
0.392167
0.356153
0.370341
0.404822
0.450378
0.503637
0.564005
0.632459
0.710926
0.800626
0.902208
1.01708
1.14699
1.29375
1.4592
1.64536
1.85466
2.09004
2.35412
2.65462
2.99559
3.37821
3.80426
4.27634
4.79701
5.36783
5.98789
6.6517
7.35204
8.0966
8.88461
9.71544
10.5875
11.501
12.454
13.4447
14.4741
15.5436
16.6551
17.8111
19.0144
20.2684
21.5767
22.9432
24.3714
25.8639
27.4208
29.0368
30.7159
32.4589
34.2678
36.1441
38.0893
40.105
42.1926
44.3534
46.5888
48.8999
51.2877
53.7531
56.2972
58.9204
61.6236
64.407
67.271
70.2157
73.2411
76.3469
79.5329
82.7984
86.1427
89.5648
93.0635
96.6375
100.285
104.005
107.794
111.651
115.573
119.557
123.6
127.7
131.852
136.053
140.298
144.584
148.905
153.257
157.635
162.031
166.441
170.857
175.272
179.678
184.067
188.432
192.766
197.066
201.333
205.583
209.851
214.15
218.381
222.56
226.675
230.721
234.691
238.58
242.379
246.084
249.688
253.184
256.567
259.831
262.971
265.98
268.854
271.587
274.176
276.615
278.9
281.027
282.993
284.795
286.43
287.895
289.189
290.31
291.256
292.027
292.627
293.049
293.275
293.312
293.177
292.892
292.446
291.813
291.013
290.047
288.918
287.63
286.186
284.593
282.853
280.971
278.952
276.802
274.527
272.132
269.622
267.005
264.287
261.473
258.571
255.587
252.528
249.4
246.213
242.972
239.687
236.369
233.04
229.778
226.939
224.616
222.413
220.23
218.049
215.869
213.692
211.521
209.358
207.202
205.055
202.902
200.781
198.603
194.94
1.43307
0.702093
0.554532
0.525281
0.536511
0.570053
0.620036
0.684274
0.762526
0.855885
0.965738
1.09345
1.24036
1.40779
1.59701
1.80933
2.04624
2.30957
2.6016
2.92534
3.28027
3.66576
4.08149
4.52696
5.00153
5.50455
6.03566
6.59545
7.18693
7.81444
8.47365
9.16455
9.88802
10.6449
11.4232
12.2287
13.0694
13.9472
14.8637
15.8205
16.8192
17.8613
18.9482
20.0815
21.2623
22.4918
23.771
25.1001
26.479
27.9088
29.3908
30.9259
32.5152
34.1596
35.8602
37.6179
39.4335
41.3079
43.2418
45.2358
47.2904
49.4062
51.5835
53.8228
56.1242
58.488
60.9142
63.4026
65.9532
68.5656
71.2393
73.9738
76.7684
79.6221
82.534
85.5028
88.5272
91.6057
94.7366
97.9179
101.148
104.424
107.743
111.104
114.503
117.936
121.402
124.896
128.415
131.954
135.51
139.077
142.652
146.23
149.807
153.378
156.939
160.489
164.026
167.552
171.07
174.584
178.077
181.528
184.935
188.291
191.592
194.832
198.006
201.108
204.133
207.076
209.933
212.697
215.365
217.931
220.392
222.742
224.979
227.097
229.094
230.965
232.708
234.32
235.797
237.139
238.343
239.407
240.329
241.11
241.747
242.242
242.589
242.775
242.82
242.728
242.5
242.136
241.627
240.98
240.198
239.282
238.237
237.066
235.771
234.356
232.826
231.185
229.437
227.586
225.637
223.595
221.466
219.253
216.963
214.6
212.171
209.68
207.134
204.537
201.898
199.222
196.518
193.803
191.119
188.591
186.259
184.006
181.779
179.566
177.363
175.174
173.002
170.852
168.733
166.657
164.641
162.763
161.03
159.307
2.24078
1.00735
0.771448
0.715275
0.718172
0.752172
0.808393
0.883928
0.978286
1.09209
1.22642
1.38238
1.56095
1.76288
1.98869
2.23874
2.51329
2.8126
3.13682
3.4859
3.85915
4.25584
4.67544
5.11772
5.58282
6.07127
6.58403
7.12246
7.68815
8.28225
8.90475
9.5559
10.2357
10.9438
11.6895
12.4735
13.2943
14.1529
15.0506
15.9889
16.9688
17.9905
19.0549
20.1627
21.3145
22.5104
23.7497
25.0339
26.3652
27.7446
29.1731
30.6517
32.1812
33.7628
35.3972
37.0853
38.8282
40.6265
42.4811
44.3925
46.3615
48.3885
50.4742
52.6189
54.8231
57.0871
59.4111
61.7952
64.2394
66.7437
69.3077
71.9311
74.6135
77.3542
80.1524
83.0071
85.9173
88.8816
91.8986
94.9667
98.0839
101.248
104.458
107.709
111.001
114.33
117.692
121.085
124.506
127.95
131.414
134.894
138.385
141.885
145.389
148.893
152.394
155.89
159.378
162.856
166.323
169.771
173.19
176.57
179.907
183.193
186.425
189.596
192.701
195.735
198.692
201.567
204.355
207.052
209.651
212.149
214.541
216.823
218.991
221.04
222.968
224.771
226.445
227.988
229.397
230.671
231.807
232.804
233.659
234.374
234.946
235.376
235.654
235.773
235.77
235.622
235.337
234.914
234.353
233.655
232.824
231.863
230.775
229.563
228.232
226.784
225.223
223.555
221.783
219.913
217.948
215.894
213.756
211.539
209.249
206.89
204.468
201.988
199.456
196.879
194.261
191.61
188.935
186.248
183.577
180.981
178.482
176.038
173.622
171.226
168.848
166.491
164.161
161.864
159.611
157.422
155.322
153.387
151.642
150.101
2.95897
1.29851
0.996788
0.922883
0.921753
0.95936
1.02403
1.11168
1.22118
1.35267
1.50671
1.68387
1.88452
2.10867
2.35606
2.62622
2.91853
3.23239
3.56719
3.92241
4.29763
4.69267
5.10769
5.54326
6.00029
6.48
6.98379
7.51317
8.06957
8.65427
9.26832
9.91287
10.5892
11.2989
12.0444
12.8268
13.6463
14.5038
15.4
16.3355
17.311
18.328
19.3873
20.4897
21.6361
22.8275
24.0655
25.3508
26.6836
28.065
29.496
30.9774
32.5106
34.0964
35.7359
37.4303
39.1805
40.9877
42.853
44.7773
46.7611
48.8054
50.9107
53.0779
55.3077
57.6006
59.9572
62.3777
64.8626
67.412
70.0259
72.7042
75.4468
78.2532
81.1229
84.055
87.0487
90.1029
93.2163
96.3872
99.6139
102.895
106.227
109.608
113.036
116.508
120.02
123.569
127.152
130.765
134.403
138.064
141.742
145.434
149.135
152.84
156.547
160.25
163.945
167.627
171.289
174.926
178.529
182.092
185.608
189.071
192.475
195.814
199.081
202.272
205.38
208.399
211.324
214.15
216.87
219.481
221.976
224.353
226.605
228.729
230.721
232.578
234.296
235.873
237.305
238.591
239.728
240.715
241.551
242.235
242.766
243.143
243.35
243.41
243.327
243.092
242.708
242.178
241.502
240.682
239.723
238.626
237.396
236.037
234.552
232.947
231.225
229.391
227.451
225.409
223.271
221.042
218.727
216.333
213.864
211.327
208.728
206.072
203.364
200.613
197.823
195.002
192.157
189.302
186.454
183.646
180.893
178.182
175.499
172.841
170.207
167.603
165.034
162.51
160.044
157.658
155.385
153.292
151.4
149.685
3.55637
1.58041
1.22441
1.13635
1.13291
1.1744
1.24666
1.34434
1.46552
1.60971
1.77687
1.967
2.17989
2.41502
2.67167
2.94894
3.24598
3.56202
3.89651
4.2492
4.62016
5.00978
5.41882
5.84836
6.29969
6.77426
7.27362
7.79928
8.3527
8.93528
9.54831
10.1931
10.871
11.5835
12.3317
13.1168
13.9395
14.8008
15.7016
16.6427
17.6251
18.65
19.7182
20.8309
21.9889
23.1936
24.4459
25.7469
27.0976
28.4991
29.9526
31.4594
33.0207
34.6379
36.3123
38.0451
39.8376
41.691
43.6065
45.5853
47.6289
49.7385
51.9154
54.1605
56.4751
58.8599
61.3158
63.8437
66.4441
69.1176
71.8644
74.6848
77.5787
80.5461
83.5865
86.6993
89.8838
93.1388
96.463
99.855
103.313
106.835
110.418
114.06
117.757
121.508
125.308
129.153
133.039
136.963
140.92
144.905
148.914
152.941
156.981
161.029
165.079
169.127
173.165
177.188
181.188
185.157
189.089
192.976
196.811
200.588
204.298
207.936
211.495
214.967
218.346
221.625
224.799
227.861
230.805
233.626
236.317
238.874
241.292
243.567
245.693
247.668
249.488
251.149
252.65
253.986
255.158
256.162
256.998
257.666
258.164
258.486
258.626
258.614
258.434
258.089
257.58
256.91
256.082
255.097
253.96
252.675
251.246
249.677
247.974
246.141
244.183
242.107
239.917
237.62
235.222
232.728
230.145
227.479
224.737
221.924
219.048
216.115
213.13
210.102
207.037
203.942
200.824
197.696
194.571
191.47
188.405
185.374
182.372
179.4
176.458
173.554
170.695
167.891
165.158
162.52
160.01
157.685
155.553
153.533
4.03143
1.83752
1.44257
1.34399
1.33894
1.38332
1.46098
1.56541
1.69392
1.8454
2.01927
2.21509
2.43226
2.67004
2.92754
3.20388
3.49829
3.81022
4.13944
4.48607
4.85057
5.23372
5.6366
6.06048
6.50679
6.97701
7.47268
7.99528
8.54625
9.127
9.73887
10.3832
11.0613
11.7743
12.5236
13.3101
14.1351
14.9995
15.9045
16.8512
17.8406
18.8741
19.9526
21.0776
22.2502
23.4717
24.7434
26.0666
27.4427
28.8732
30.3595
31.9033
33.5062
35.1697
36.8955
38.6852
40.5406
42.4632
44.4547
46.5169
48.6515
50.86
53.1442
55.5055
57.9455
60.4654
63.0666
65.7502
68.5172
71.3685
74.3046
77.3262
80.4335
83.6265
86.905
90.2686
93.7165
97.2477
100.861
104.555
108.327
112.175
116.096
120.089
124.148
128.271
132.454
136.692
140.981
145.316
149.691
154.102
158.542
163.006
167.486
171.978
176.473
180.966
185.448
189.911
194.348
198.751
203.11
207.419
211.668
215.851
219.958
223.983
227.917
231.752
235.481
239.096
242.591
245.957
249.189
252.28
255.223
258.014
260.646
263.115
265.415
267.544
269.496
271.268
272.858
274.263
275.482
276.512
277.353
278.004
278.465
278.721
278.792
278.683
278.387
277.907
277.245
276.405
275.39
274.203
272.848
271.331
269.656
267.829
265.855
263.741
261.492
259.115
256.617
254.003
251.282
248.459
245.543
242.539
239.456
236.3
233.079
229.8
226.469
223.096
219.685
216.246
212.787
209.317
205.849
202.398
198.974
195.58
192.218
188.89
185.6
182.355
179.164
176.04
172.999
170.065
167.269
164.661
162.231
159.852
4.44515
2.07843
1.6488
1.5389
1.53058
1.57532
1.65527
1.76278
1.89438
2.04837
2.22376
2.41979
2.6357
2.87071
3.12401
3.39491
3.68288
3.98768
4.30937
4.64836
5.00535
5.38132
5.77744
6.19503
6.63549
7.10029
7.5909
8.10879
8.65539
9.23211
9.84033
10.4814
11.1567
11.8674
12.6147
13.3999
14.2245
15.0897
15.9968
16.9472
17.9422
18.9832
20.0715
21.2088
22.3966
23.6364
24.9297
26.2782
27.6837
29.1482
30.6735
32.2617
33.9147
35.6346
37.4235
39.2834
41.2164
43.2249
45.3109
47.4766
49.7242
52.0558
54.4737
56.9798
59.576
62.2643
65.0463
67.9236
70.8978
73.9699
77.1411
80.4121
83.7834
87.2554
90.8279
94.5006
98.2729
102.144
106.111
110.175
114.331
118.577
122.911
127.33
131.828
136.402
141.048
145.76
150.533
155.361
160.238
165.157
170.112
175.095
180.099
185.115
190.137
195.154
200.159
205.142
210.095
215.006
219.868
224.671
229.406
234.063
238.633
243.108
247.478
251.733
255.867
259.869
263.733
267.449
271.01
274.409
277.64
280.695
283.568
286.255
288.75
291.048
293.145
295.038
296.723
298.199
299.464
300.515
301.353
301.977
302.383
302.562
302.541
302.311
301.873
301.23
300.385
299.341
298.103
296.675
295.063
293.273
291.309
289.179
286.889
284.446
281.857
279.13
276.271
273.29
270.194
266.99
263.687
260.293
256.816
253.263
249.644
245.965
242.235
238.462
234.654
230.819
226.966
223.103
219.242
215.396
211.574
207.782
204.024
200.306
196.634
193.014
189.459
185.98
182.596
179.33
176.21
173.278
170.509
167.747
5.31758
2.39464
1.86481
1.72382
1.70405
1.74385
1.82196
1.92876
2.05969
2.21242
2.38555
2.5781
2.78928
3.01834
3.26466
3.52778
3.80742
4.10359
4.41658
4.74693
5.09549
5.46331
5.85158
6.26159
6.69464
7.15194
7.63513
8.14573
8.6852
9.25498
9.85651
10.4913
11.1607
11.8665
12.6098
13.3918
14.2139
15.0777
15.9847
16.9365
17.9348
18.9815
20.0787
21.2284
22.4321
23.6917
25.0089
26.3853
27.8236
29.3265
30.8963
32.5355
34.2467
36.0324
37.8952
39.8377
41.8626
43.9726
46.1706
48.4592
50.8412
53.3194
55.8965
58.575
61.3575
64.2464
67.2439
70.352
73.5727
76.9076
80.358
83.925
87.6095
91.4118
95.332
99.3698
103.524
107.795
112.179
116.676
121.281
125.994
130.809
135.722
140.731
145.828
151.009
156.268
161.597
166.992
172.443
177.943
183.484
189.057
194.654
200.264
205.879
211.488
217.081
222.647
228.176
233.657
239.078
244.431
249.703
254.885
259.965
264.934
269.781
274.496
279.069
283.49
287.751
291.843
295.756
299.483
303.016
306.348
309.473
312.384
315.076
317.544
319.783
321.791
323.563
325.098
326.394
327.449
328.264
328.839
329.164
329.249
329.101
328.719
328.106
327.265
326.201
324.916
323.417
321.709
319.799
317.692
315.397
312.92
310.269
307.452
304.478
301.355
298.092
294.697
291.18
287.549
283.814
279.984
276.068
272.074
268.012
263.89
259.717
255.502
251.254
246.981
242.691
238.395
234.103
229.826
225.573
221.353
217.172
213.036
208.953
204.931
200.983
197.122
193.366
189.738
186.263
182.975
179.838
176.679
6.36316
2.73372
2.07392
1.89044
1.85335
1.8838
1.95649
2.05937
2.18669
2.33539
2.5037
2.69048
2.89488
3.11628
3.3542
3.60836
3.87871
4.16543
4.46892
4.78974
5.12869
5.48704
5.86611
6.26734
6.69242
7.14258
7.61874
8.12224
8.65451
9.21702
9.81127
10.4388
11.1011
11.7997
12.536
13.3119
14.129
14.9893
15.8948
16.8475
17.8491
18.9019
20.0076
21.1685
22.387
23.6656
25.0072
26.4153
27.8913
29.4385
31.0601
32.7592
34.5389
36.4022
38.3525
40.3928
42.5266
44.7573
47.0882
49.5228
52.0645
54.7166
57.4826
60.3657
63.3688
66.4951
69.7473
73.1278
76.6392
80.2832
84.0617
87.9759
92.0269
96.215
100.54
105.003
109.601
114.334
119.199
124.194
129.317
134.562
139.926
145.405
150.991
156.681
162.466
168.339
174.294
180.321
186.412
192.558
198.748
204.973
211.222
217.484
223.747
230.001
236.233
242.43
248.582
254.674
260.697
266.636
272.48
278.217
283.836
289.323
294.669
299.861
304.889
309.742
314.409
318.882
323.149
327.203
331.036
334.639
338.005
341.128
344.003
346.623
348.985
351.085
352.92
354.488
355.786
356.816
357.575
358.065
358.28
358.231
357.918
357.345
356.517
355.438
354.112
352.544
350.741
348.71
346.458
343.992
341.321
338.454
335.399
332.165
328.763
325.201
321.49
317.64
313.661
309.563
305.356
301.051
296.657
292.184
287.642
283.04
278.389
273.697
268.974
264.23
259.472
254.711
249.958
245.221
240.513
235.84
231.212
226.636
222.12
217.675
213.312
209.047
204.896
200.882
197.027
193.36
189.833
186.271
7.38379
3.05094
2.25919
2.03057
1.97367
1.99223
2.05703
2.1537
2.27528
2.41807
2.57993
2.75956
2.95608
3.16894
3.39778
3.64234
3.90273
4.17951
4.47345
4.78574
5.11694
5.46766
5.83892
6.23187
6.6476
7.08714
7.55202
8.04397
8.56461
9.11554
9.69838
10.3148
10.9665
11.6554
12.3832
13.1522
13.9644
14.8219
15.727
16.6818
17.6888
18.7504
19.8692
21.0481
22.2901
23.5978
24.9743
26.4213
27.9429
29.5442
31.2294
33.0023
34.8663
36.8252
38.8828
41.0431
43.3101
45.688
48.1809
50.793
53.5283
56.391
59.3851
62.5144
65.7827
69.1934
72.7499
76.4551
80.3117
84.3219
88.4877
92.8104
97.2911
101.93
106.728
111.682
116.794
122.059
127.476
133.042
138.752
144.602
150.586
156.699
162.934
169.284
175.74
182.294
188.936
195.657
202.447
209.294
216.187
223.114
230.062
237.02
243.973
250.909
257.813
264.673
271.474
278.203
284.845
291.388
297.816
304.118
310.28
316.289
322.131
327.796
333.27
338.542
343.601
348.437
353.038
357.396
361.501
365.346
368.923
372.226
375.248
377.984
380.43
382.582
384.437
385.994
387.252
388.209
388.867
389.226
389.287
389.054
388.527
387.715
386.624
385.258
383.623
381.724
379.57
377.169
374.528
371.658
368.567
365.265
361.763
358.071
354.199
350.159
345.962
341.618
337.141
332.539
327.826
323.012
318.108
313.124
308.072
302.962
297.804
292.609
287.385
282.144
276.893
271.645
266.407
261.192
256.009
250.867
245.775
240.742
235.778
230.894
226.102
221.416
216.854
212.437
208.184
204.119
200.192
196.222
8.33509
3.33281
2.41425
2.14109
2.06353
2.06891
2.1243
2.21322
2.32765
2.4633
2.61773
2.7894
2.97738
3.18137
3.40138
3.63786
3.89065
4.15975
4.4455
4.74823
5.06849
5.40768
5.76703
6.14774
6.55107
6.97855
7.43194
7.91263
8.42221
8.96238
9.53495
10.1418
10.785
11.4665
12.1887
12.9538
13.7643
14.6227
15.5317
16.4942
17.5128
18.5907
19.7309
20.9368
22.2126
23.5606
24.9834
26.4834
28.0687
29.7438
31.5133
33.3831
35.3576
37.4409
39.6374
41.9521
44.3896
46.9551
49.6533
52.4892
55.4677
58.5936
61.8714
65.3057
68.9008
72.6605
76.5885
80.6881
84.9621
89.4129
94.0423
98.8515
103.841
109.012
114.362
119.891
125.597
131.476
137.526
143.742
150.118
156.65
163.329
170.149
177.102
184.179
191.369
198.663
206.049
213.516
221.052
228.644
236.279
243.942
251.621
259.299
266.963
274.597
282.186
289.714
297.167
304.529
311.785
318.919
325.917
332.763
339.445
345.947
352.256
358.358
364.241
369.892
375.299
380.45
385.336
389.947
394.272
398.305
402.036
405.46
408.57
411.362
413.831
415.974
417.788
419.273
420.427
421.251
421.746
421.914
421.76
421.281
420.481
419.373
417.962
416.253
414.254
411.971
409.414
406.593
403.516
400.194
396.637
392.858
388.866
384.675
380.296
375.74
371.022
366.152
361.144
356.009
350.761
345.412
339.972
334.454
328.869
323.229
317.545
311.826
306.085
300.33
294.571
288.82
283.086
277.379
271.71
266.089
260.524
255.027
249.606
244.274
239.043
233.928
228.945
224.114
219.452
214.982
210.647
206.274
9.19347
3.57426
2.53781
2.22244
2.1237
2.11591
2.16097
2.24117
2.34746
2.47525
2.62204
2.78663
2.96799
3.16521
3.37782
3.60535
3.84784
4.10602
4.38048
4.67196
4.98163
5.31041
5.65934
6.02965
6.42271
6.84006
7.28334
7.75426
8.25462
8.78634
9.35149
9.95227
10.591
11.2702
11.9926
12.7607
13.5774
14.4458
15.3692
16.3512
17.3954
18.5048
19.6829
20.9329
22.2563
23.6597
25.1496
26.7326
28.4136
30.1979
32.0911
34.0993
36.2285
38.4838
40.8708
43.3951
46.0625
48.8788
51.8497
54.9807
58.2775
61.7454
65.3895
69.2148
73.2257
77.4265
81.8208
86.4117
91.202
96.1936
101.388
106.786
112.387
118.19
124.194
130.397
136.794
143.383
150.157
157.112
164.239
171.533
178.983
186.582
194.318
202.182
210.161
218.242
226.415
234.664
242.975
251.334
259.727
268.136
276.546
284.942
293.306
301.623
309.874
318.044
326.116
334.073
341.898
349.575
357.089
364.423
371.563
378.493
385.199
391.668
397.884
403.836
409.512
414.899
419.987
424.765
429.225
433.359
437.158
440.616
443.728
446.489
448.895
450.943
452.632
453.961
454.93
455.541
455.795
455.699
455.254
454.451
453.309
451.837
450.041
447.927
445.502
442.778
439.763
436.468
432.904
429.083
425.017
420.717
416.197
411.47
406.548
401.445
396.175
390.752
385.188
379.497
373.693
367.789
361.796
355.729
349.598
343.415
337.193
330.943
324.674
318.399
312.126
305.867
299.632
293.431
287.274
281.172
275.135
269.172
263.295
257.514
251.844
246.297
240.891
235.644
230.571
225.692
220.952
216.185
9.94834
3.77427
2.63085
2.27659
2.15714
2.13656
2.17098
2.24251
2.34193
2.46346
2.60387
2.76104
2.93373
3.12167
3.32466
3.54276
3.7764
4.02585
4.29165
4.57457
4.87558
5.19573
5.53624
5.89847
6.28395
6.69437
7.13157
7.59751
8.09423
8.62398
9.18918
9.79243
10.4366
11.1249
11.8607
12.6467
13.4865
14.3834
15.341
16.3619
17.4485
18.6077
19.8449
21.1657
22.5771
24.084
25.6928
27.4101
29.2422
31.1956
33.2773
35.4948
37.8537
40.361
43.0236
45.8484
48.8422
52.0113
55.362
58.9004
62.6323
66.5634
70.6989
75.0436
79.6017
84.3772
89.373
94.5916
100.035
105.703
111.597
117.717
124.059
130.622
137.403
144.397
151.599
159.003
166.602
174.388
182.352
190.484
198.774
207.21
215.781
224.472
233.272
242.164
251.136
260.17
269.252
278.364
287.49
296.614
305.717
314.781
323.79
332.725
341.569
350.303
358.911
367.373
375.674
383.796
391.722
399.437
406.924
414.168
421.155
427.87
434.3
440.431
446.251
451.749
456.915
461.738
466.209
470.321
474.066
477.439
480.434
483.048
485.277
487.119
488.574
489.64
490.323
490.62
490.54
490.093
489.252
488.047
486.483
484.57
482.315
479.725
476.811
473.582
470.052
466.23
462.129
457.763
453.144
448.285
443.201
437.906
432.413
426.738
420.894
414.897
408.76
402.499
396.127
389.659
383.106
376.483
369.803
363.077
356.317
349.536
342.743
335.951
329.17
322.409
315.68
308.992
302.356
295.782
289.281
282.862
276.536
270.316
264.214
258.244
252.422
246.764
241.284
236.004
230.866
225.72
10.5905
3.93128
2.69451
2.30616
2.16803
2.13592
2.16204
2.22622
2.31744
2.43062
2.56278
2.71215
2.87776
3.0589
3.25527
3.4669
3.69409
3.93732
4.19728
4.47481
4.77093
5.08688
5.42406
5.78404
6.16862
6.57987
7.02032
7.49224
7.99788
8.53995
9.12137
9.74517
10.4143
11.1314
11.8984
12.7214
13.6052
14.5547
15.5751
16.6721
17.852
19.1199
20.4823
21.9463
23.5195
25.2088
27.0215
28.9654
31.0481
33.2774
35.6613
38.2081
40.9251
43.8208
46.9035
50.1816
53.6622
57.3519
61.2565
65.3817
69.7331
74.3154
79.1331
84.1899
89.4887
95.0317
100.82
106.855
113.136
119.661
126.429
133.436
140.678
148.15
155.846
163.76
171.883
180.207
188.722
197.418
206.283
215.306
224.474
233.772
243.187
252.704
262.308
271.982
281.711
291.476
301.262
311.049
320.822
330.56
340.247
349.864
359.391
368.812
378.107
387.259
396.249
405.059
413.673
422.073
430.242
438.165
445.825
453.207
460.298
467.083
473.548
479.682
485.472
490.907
495.978
500.676
504.991
508.917
512.448
515.578
518.304
520.623
522.531
524.028
525.115
525.79
526.063
525.934
525.415
524.481
523.158
521.454
519.378
516.94
514.147
511.008
507.536
503.741
499.637
495.236
490.552
485.598
480.389
474.939
469.263
463.375
457.292
451.027
444.597
438.017
431.303
424.468
417.529
410.499
403.392
396.222
389.001
381.743
374.459
367.161
359.86
352.568
345.295
338.051
330.847
323.692
316.597
309.572
302.627
295.772
289.018
282.376
275.86
269.484
263.261
257.208
251.337
245.67
240.15
234.649
11.1687
4.05774
2.7361
2.31737
2.16304
2.12068
2.13659
2.19184
2.27592
2.38302
2.50981
2.65438
2.81559
2.99281
3.18583
3.39474
3.61998
3.86231
4.12298
4.40277
4.70293
5.02499
5.37074
5.74211
6.14119
6.57003
7.03018
7.52418
8.0563
8.63038
9.25039
9.92056
10.6455
11.4303
12.2809
13.2023
14.2005
15.282
16.4539
17.7239
19.0999
20.5897
22.2016
23.9444
25.8271
27.8586
30.0481
32.4046
34.9372
37.6546
40.5651
43.6749
46.9949
50.5348
54.3046
58.3163
62.5758
67.0861
71.8505
76.8723
82.1546
87.6996
93.5087
99.5825
105.921
112.522
119.384
126.503
133.877
141.498
149.363
157.463
165.791
174.339
183.098
192.056
201.205
210.531
220.024
229.669
239.454
249.365
259.386
269.503
279.7
289.96
300.268
310.607
320.959
331.306
341.633
351.919
362.149
372.303
382.363
392.311
402.129
411.8
421.304
430.626
439.747
448.65
457.319
465.736
473.887
481.755
489.327
496.586
503.521
510.118
516.365
522.249
527.761
532.89
537.628
541.966
545.897
549.415
552.516
555.194
557.448
559.275
560.674
561.646
562.192
562.306
562.028
561.317
560.186
558.651
556.718
554.396
551.697
548.63
545.202
541.425
537.313
532.877
528.132
523.091
517.769
512.18
506.339
500.262
493.963
487.458
480.764
473.895
466.869
459.7
452.405
444.998
437.496
429.913
422.262
414.558
406.813
399.04
391.251
383.458
375.672
367.904
360.165
352.464
344.811
337.216
329.688
322.239
314.877
307.612
300.456
293.418
286.513
279.753
273.152
266.725
260.483
254.449
248.567
242.74
11.6992
4.15873
2.75909
2.31412
2.14599
2.09414
2.10385
2.15485
2.23601
2.34144
2.46791
2.61363
2.77733
2.95849
3.15708
3.37339
3.60797
3.86141
4.13391
4.42761
4.74475
5.08762
5.45872
5.86088
6.29723
6.77138
7.2878
7.85085
8.46496
9.1354
9.86805
10.6693
11.5463
12.5066
13.5585
14.71
15.97
17.3479
18.8538
20.4981
22.2917
24.2453
26.3698
28.6765
31.1761
33.8793
36.7963
39.9372
43.3116
46.928
50.7941
54.9167
59.3041
63.9637
68.9035
74.1318
79.6486
85.4512
91.5376
97.9054
104.552
111.473
118.665
126.121
133.837
141.804
150.015
158.462
167.136
176.027
185.126
194.421
203.901
213.556
223.374
233.341
243.445
253.674
264.013
274.45
284.969
295.556
306.197
316.876
327.578
338.287
348.988
359.664
370.3
380.879
391.384
401.8
412.109
422.295
432.341
442.231
451.949
461.477
470.8
479.901
488.766
497.378
505.722
513.783
521.547
528.999
536.127
542.916
549.356
555.435
561.142
566.466
571.398
575.929
580.052
583.76
587.047
589.909
592.343
594.341
595.91
597.042
597.741
598.006
597.844
597.27
596.247
594.813
592.966
590.715
588.069
585.037
581.631
577.86
573.734
569.264
564.466
559.351
553.936
548.234
542.259
536.028
529.555
522.855
515.946
508.842
501.559
494.114
486.523
478.801
470.965
463.03
455.011
446.922
438.779
430.593
422.378
414.146
405.909
397.678
389.465
381.279
373.131
365.031
356.986
349.008
341.105
333.286
325.561
317.939
310.43
303.047
295.799
288.701
281.765
275.005
268.432
262.069
255.862
249.752
12.1602
4.22892
2.76618
2.30327
2.12719
2.07299
2.08326
2.13705
2.22293
2.33478
2.46896
2.62291
2.79649
2.98976
3.20317
3.43761
3.69438
3.97529
4.28302
4.61983
4.98885
5.39372
5.83861
6.32826
6.86809
7.46437
8.12411
8.85466
9.66378
10.5602
11.5538
12.6552
13.8759
15.228
16.7242
18.3774
20.2009
22.2087
24.4151
26.834
29.4787
32.3621
35.4967
38.8946
42.5662
46.5201
50.7638
55.3041
60.1473
65.2969
70.7537
76.5184
82.5949
88.9827
95.6857
102.694
109.988
117.56
125.399
133.496
141.839
150.416
159.217
168.23
177.442
186.842
196.418
206.157
216.049
226.08
236.24
246.516
256.897
267.371