/*--------------------------------*- C++ -*----------------------------------*\
| =========                 |                                                 |
| \\      /  F ield         | OpenFOAM: The Open Source CFD Toolbox           |
|  \\    /   O peration     | Version:  2406                                  |
|   \\  /    A nd           | Website:  www.openfoam.com                      |
|    \\/     M anipulation  |                                                 |
\*---------------------------------------------------------------------------*/
FoamFile
{
    version     2.0;
    format      ascii;
    arch        "LSB;label=32;scalar=64";
    class       volScalarField;
    location    "281";
    object      k;
}
// * * * * * * * * * * * * * * * * * * * * * * * * * * * * * * * * * * * * * //

dimensions      [0 2 -2 0 0 0 0];

internalField   nonuniform List<scalar> 
12225
(
0.571355
0.987723
1.28114
1.45557
1.54166
1.57741
1.57632
1.56599
1.54775
1.52388
1.50049
1.47801
1.45793
1.43899
1.42336
1.40763
1.39698
1.38225
0.436368
0.496702
0.521954
0.534903
0.542888
0.547412
0.550242
0.552226
0.555994
0.559482
0.565526
0.571181
0.579498
0.586963
0.596703
0.605399
0.615181
0.625781
0.388596
0.417503
0.424145
0.421544
0.415001
0.404965
0.393798
0.382812
0.371927
0.362429
0.353238
0.346113
0.338975
0.334344
0.329112
0.326704
0.323064
0.322353
0.377462
0.38452
0.388006
0.387472
0.385271
0.381193
0.375693
0.369564
0.363115
0.356562
0.350107
0.3438
0.33782
0.332059
0.326781
0.321673
0.317171
0.312714
0.37451
0.375403
0.37637
0.375959
0.37474
0.372522
0.369618
0.366137
0.362485
0.358469
0.354556
0.350368
0.34652
0.342382
0.338793
0.334818
0.331604
0.327844
0.373826
0.372561
0.371993
0.371088
0.36991
0.368266
0.36634
0.364031
0.36164
0.358966
0.356373
0.353535
0.350915
0.348046
0.345519
0.3427
0.340346
0.337624
0.373789
0.371731
0.37023
0.368833
0.367464
0.36594
0.364344
0.362551
0.360733
0.358749
0.356812
0.35473
0.352769
0.350664
0.348747
0.346671
0.34485
0.342829
0.373822
0.371564
0.36962
0.36786
0.36625
0.364663
0.363121
0.361521
0.359944
0.358297
0.356694
0.355025
0.353428
0.351768
0.350212
0.348587
0.347101
0.345522
0.373834
0.371554
0.369457
0.36751
0.365722
0.364025
0.362428
0.360861
0.359354
0.357851
0.3564
0.354942
0.35354
0.352129
0.350784
0.349424
0.348147
0.346841
0.373833
0.37156
0.369425
0.36741
0.365529
0.363752
0.362086
0.360492
0.35898
0.357515
0.356115
0.354747
0.353436
0.35215
0.350918
0.349705
0.348549
0.347404
0.37383
0.371561
0.369417
0.367384
0.365468
0.363652
0.361942
0.360316
0.358778
0.357309
0.355911
0.354569
0.353288
0.352053
0.350871
0.349728
0.348634
0.347573
0.373828
0.371559
0.369412
0.367375
0.365448
0.363619
0.361889
0.360247
0.35869
0.357209
0.355802
0.354459
0.35318
0.351957
0.350789
0.349669
0.348598
0.34757
0.373827
0.371557
0.369407
0.367369
0.365437
0.363603
0.361865
0.360213
0.358646
0.357156
0.355739
0.35439
0.353107
0.351883
0.350716
0.349601
0.348536
0.34752
0.373827
0.371555
0.369403
0.367362
0.365428
0.363591
0.361848
0.360192
0.358619
0.357123
0.3557
0.354345
0.353056
0.351828
0.350656
0.34954
0.348474
0.347458
0.373826
0.371553
0.369399
0.367357
0.36542
0.363581
0.361835
0.360176
0.358599
0.3571
0.355673
0.354315
0.353021
0.351788
0.350613
0.349493
0.348424
0.347405
0.373826
0.371552
0.369396
0.367352
0.365413
0.363572
0.361824
0.360163
0.358584
0.357081
0.355652
0.35429
0.352994
0.351758
0.35058
0.349457
0.348385
0.347363
0.373825
0.371551
0.369394
0.367349
0.365408
0.363566
0.361816
0.360152
0.358571
0.357067
0.355635
0.354271
0.352972
0.351735
0.350555
0.349429
0.348355
0.347331
0.373825
0.371551
0.369393
0.367347
0.365405
0.363561
0.36181
0.360145
0.358562
0.357056
0.355623
0.354258
0.352957
0.351718
0.350536
0.349409
0.348334
0.347308
0.373825
0.371551
0.369393
0.367347
0.365404
0.36356
0.361808
0.360143
0.358559
0.357052
0.355618
0.354252
0.35295
0.35171
0.350527
0.349399
0.348323
0.347296
0.373825
0.371551
0.369394
0.367348
0.365406
0.363562
0.361811
0.360146
0.358562
0.357056
0.355622
0.354256
0.352955
0.351715
0.350532
0.349405
0.348329
0.347302
0.373826
0.371552
0.369396
0.367351
0.36541
0.363567
0.361816
0.360152
0.35857
0.357065
0.355633
0.354268
0.352969
0.35173
0.35055
0.349423
0.348349
0.347323
0.373826
0.371553
0.369398
0.367355
0.365416
0.363575
0.361828
0.360168
0.358591
0.357091
0.355664
0.354306
0.353012
0.351779
0.350602
0.34948
0.348408
0.347383
0.373826
0.371555
0.369401
0.367363
0.365432
0.363605
0.361875
0.360237
0.358681
0.357203
0.355794
0.354451
0.353167
0.351939
0.350762
0.349635
0.348552
0.347513
0.373827
0.371555
0.369413
0.367418
0.365544
0.363793
0.362138
0.360572
0.359071
0.357632
0.35624
0.354896
0.353589
0.352323
0.35109
0.349894
0.348728
0.347601
0.373825
0.371565
0.369582
0.367846
0.366223
0.364711
0.363219
0.361754
0.360266
0.358787
0.357288
0.3558
0.354306
0.352833
0.351361
0.349924
0.348495
0.34711
0.373813
0.371945
0.370923
0.369984
0.368911
0.367769
0.366327
0.364737
0.362934
0.361062
0.35906
0.357054
0.354971
0.352925
0.350845
0.348825
0.346792
0.344839
0.374386
0.375097
0.377363
0.377613
0.37706
0.375839
0.373494
0.370865
0.367802
0.364686
0.361328
0.358027
0.354602
0.351291
0.347923
0.3447
0.341473
0.338414
0.379653
0.393541
0.402719
0.402409
0.400144
0.396078
0.390672
0.385167
0.379133
0.373302
0.367221
0.361475
0.355719
0.350305
0.345128
0.340198
0.335726
0.331324
0.405811
0.438978
0.451181
0.455812
0.459105
0.46226
0.46497
0.467227
0.46922
0.47084
0.472486
0.473922
0.47554
0.477066
0.479202
0.480825
0.483663
0.485376
0.479035
0.684949
0.865145
0.99081
1.09437
1.17584
1.23938
1.28342
1.31504
1.33208
1.34321
1.34355
1.34143
1.33632
1.32786
1.31776
1.30684
1.2954
0.0023185
0.00385824
0.0055634
0.00716806
0.00857004
0.00976732
0.0107878
0.0116613
0.0124166
0.0131222
0.0138215
0.0145227
0.0152463
0.016009
0.016819
0.017676
0.0185771
0.0195257
0.0205517
0.0217459
0.0232407
0.0250237
0.0270311
0.0292476
0.0316878
0.0343755
0.0373362
0.0405905
0.0441495
0.0480061
0.0521392
0.0565376
0.061182
0.0660454
0.0711088
0.0763513
0.0817579
0.0873142
0.0930095
0.0988362
0.10479
0.110872
0.117087
0.123449
0.129979
0.136711
0.143697
0.15101
0.158462
0.166071
0.173828
0.181743
0.189814
0.198046
0.206438
0.214994
0.223715
0.232602
0.241656
0.250877
0.260264
0.269819
0.279539
0.289424
0.299471
0.309679
0.320042
0.33056
0.341227
0.35204
0.362992
0.374079
0.385293
0.39663
0.408081
0.41964
0.431296
0.443043
0.454871
0.466771
0.478732
0.490745
0.502798
0.514881
0.526981
0.539087
0.551187
0.563268
0.575316
0.587319
0.599261
0.611127
0.622901
0.634564
0.646098
0.657481
0.66869
0.679701
0.69049
0.701039
0.711348
0.721461
0.731407
0.741086
0.75054
0.759742
0.768689
0.777366
0.785763
0.79387
0.801674
0.809167
0.816337
0.823177
0.829675
0.835824
0.841616
0.847043
0.852099
0.856777
0.861071
0.864976
0.868486
0.871598
0.874307
0.876614
0.878515
0.880011
0.881099
0.881778
0.882041
0.88193
0.881465
0.880522
0.879129
0.877321
0.875214
0.872777
0.869892
0.86665
0.863039
0.859073
0.854761
0.850112
0.845138
0.839846
0.834247
0.828352
0.822172
0.81572
0.809008
0.802048
0.794854
0.787438
0.779814
0.771996
0.763998
0.755834
0.747518
0.739065
0.730492
0.721817
0.713066
0.704287
0.695685
0.689
0.684867
0.681022
0.677169
0.673284
0.669367
0.665421
0.661441
0.657414
0.653308
0.649045
0.644472
0.639117
0.632096
0.607066
0.00573271
0.00892627
0.012664
0.0156955
0.0182523
0.0205117
0.0225869
0.0245568
0.0264813
0.0284065
0.0303973
0.0325222
0.0348235
0.0373205
0.0400158
0.042902
0.0459711
0.0492207
0.0526594
0.0563026
0.0601639
0.0642571
0.0685962
0.0731957
0.0780764
0.0832631
0.0887812
0.0946531
0.100894
0.107505
0.114477
0.121806
0.129488
0.137519
0.145895
0.154595
0.163608
0.17293
0.182557
0.192486
0.202713
0.213238
0.22406
0.235179
0.246596
0.258311
0.270323
0.282628
0.295213
0.308086
0.321252
0.334716
0.348482
0.362555
0.37694
0.391641
0.406661
0.422006
0.437677
0.453679
0.470013
0.486682
0.503687
0.521028
0.538705
0.556717
0.575063
0.59374
0.612745
0.632074
0.651722
0.671682
0.691947
0.712511
0.733363
0.754494
0.775894
0.79755
0.81945
0.841581
0.863927
0.886473
0.909203
0.9321
0.955145
0.978319
1.0016
1.02497
1.04841
1.0719
1.0954
1.1189
1.14237
1.16578
1.1891
1.21231
1.23535
1.25821
1.28082
1.30314
1.32511
1.34664
1.36774
1.38855
1.40903
1.42916
1.44892
1.4683
1.48726
1.50578
1.52383
1.54141
1.55848
1.57502
1.59102
1.60644
1.62128
1.63552
1.64913
1.66211
1.67443
1.68608
1.69704
1.70731
1.71687
1.72572
1.73383
1.74122
1.74786
1.75376
1.75892
1.76334
1.76701
1.76993
1.77197
1.77313
1.77367
1.77364
1.77276
1.77113
1.76877
1.76569
1.7619
1.75741
1.75224
1.7464
1.73991
1.73278
1.72504
1.7167
1.70778
1.6983
1.68829
1.67776
1.66674
1.65526
1.64333
1.63099
1.61825
1.60515
1.59172
1.57797
1.56396
1.54971
1.53533
1.52118
1.50738
1.49352
1.47957
1.46554
1.45145
1.43733
1.42318
1.40902
1.39482
1.38054
1.36602
1.35116
1.33447
1.29903
0.00959168
0.0145812
0.0196532
0.0236083
0.0269572
0.0299826
0.0328474
0.035663
0.0385152
0.0414758
0.0446062
0.0479545
0.0515527
0.0554157
0.0595453
0.0639352
0.0685767
0.0734636
0.0785952
0.0839771
0.0896226
0.0955438
0.101754
0.108268
0.115107
0.122292
0.129843
0.137778
0.14611
0.154854
0.164028
0.173638
0.18369
0.194183
0.205113
0.216468
0.228239
0.240423
0.253012
0.266002
0.279386
0.293158
0.307313
0.321847
0.336756
0.352036
0.367683
0.383694
0.400068
0.41681
0.433922
0.45141
0.469276
0.487526
0.506164
0.525192
0.544615
0.564436
0.584657
0.605281
0.62631
0.647744
0.669584
0.691829
0.714478
0.737528
0.760978
0.784822
0.809055
0.833673
0.858667
0.884031
0.909754
0.935826
0.962237
0.988974
1.01602
1.04337
1.071
1.0989
1.12704
1.15541
1.18399
1.21275
1.24168
1.27075
1.29994
1.32922
1.35856
1.38794
1.41733
1.4467
1.47601
1.50524
1.53435
1.56331
1.59208
1.62063
1.64893
1.67693
1.70462
1.73195
1.75893
1.78553
1.81172
1.83747
1.86275
1.88753
1.91177
1.93545
1.95853
1.981
2.00281
2.02394
2.04436
2.06406
2.083
2.10115
2.11851
2.13504
2.15073
2.16555
2.17949
2.19254
2.20467
2.21588
2.22616
2.23548
2.24386
2.25128
2.25774
2.26324
2.26777
2.27132
2.27384
2.27523
2.27577
2.27549
2.27418
2.27192
2.26871
2.26459
2.25955
2.25362
2.24682
2.23916
2.23067
2.22136
2.21127
2.20041
2.18882
2.17651
2.16352
2.14988
2.13561
2.12074
2.10531
2.08935
2.07289
2.05596
2.03861
2.02087
2.00278
1.98439
1.96581
1.94723
1.92874
1.91017
1.8915
1.87274
1.85393
1.83509
1.81627
1.79748
1.77874
1.76008
1.74143
1.72282
1.70282
1.67152
0.0129284
0.0205083
0.0268644
0.0316694
0.0357235
0.0394076
0.0429314
0.0464324
0.050013
0.0537537
0.0577172
0.0619485
0.066475
0.0713079
0.0764459
0.0818801
0.0876001
0.0935978
0.0998705
0.106422
0.11326
0.120398
0.127856
0.135656
0.143826
0.152393
0.161383
0.170822
0.180729
0.191122
0.202011
0.2134
0.225289
0.237672
0.25054
0.263889
0.277715
0.292011
0.306768
0.321978
0.337634
0.353728
0.370256
0.387212
0.404592
0.422393
0.440612
0.45925
0.478307
0.497787
0.517693
0.538032
0.558806
0.58002
0.60168
0.623789
0.646351
0.66937
0.692849
0.716791
0.741198
0.76607
0.791409
0.817215
0.843486
0.870219
0.897413
0.925063
0.953163
0.981708
1.01069
1.0401
1.06993
1.10016
1.13079
1.1618
1.19318
1.2249
1.25696
1.28932
1.32198
1.35491
1.38809
1.42148
1.45508
1.48884
1.52274
1.55675
1.59085
1.62499
1.65914
1.69328
1.72737
1.76136
1.79523
1.82894
1.86245
1.89573
1.92874
1.96145
1.99381
2.02581
2.05739
2.08853
2.11919
2.14933
2.17891
2.20789
2.23624
2.26392
2.29089
2.31713
2.34259
2.36724
2.39105
2.414
2.43604
2.45716
2.47733
2.49652
2.51471
2.53187
2.54799
2.56304
2.57702
2.5899
2.60167
2.61232
2.62185
2.63024
2.6375
2.64362
2.6486
2.65242
2.65504
2.65637
2.65671
2.65598
2.65409
2.65108
2.64698
2.64178
2.63553
2.62823
2.6199
2.61058
2.60029
2.58905
2.57689
2.56384
2.54994
2.5352
2.51967
2.50338
2.48637
2.46866
2.45031
2.43134
2.41179
2.39171
2.37113
2.35011
2.32868
2.30692
2.28491
2.26279
2.24063
2.21838
2.19601
2.17355
2.15106
2.12857
2.10613
2.08379
2.06161
2.03967
2.01801
1.99671
1.97456
1.9454
0.0155661
0.0263724
0.0340729
0.0397651
0.0445376
0.0488615
0.0529921
0.0570928
0.061281
0.065645
0.0702504
0.0751425
0.0803473
0.085875
0.0917239
0.0978857
0.104351
0.111114
0.118175
0.12554
0.133224
0.141248
0.149636
0.158417
0.167621
0.177276
0.18741
0.198044
0.209195
0.220875
0.233089
0.245841
0.259128
0.272946
0.28729
0.302156
0.317535
0.333421
0.349807
0.366685
0.384049
0.401893
0.420212
0.439003
0.458263
0.477992
0.498188
0.518854
0.539993
0.561609
0.583706
0.606291
0.629368
0.652942
0.67702
0.701605
0.726704
0.752321
0.778459
0.805122
0.832314
0.860037
0.888291
0.917077
0.946396
0.976245
1.00662
1.03752
1.06894
1.10088
1.13332
1.16626
1.19968
1.23358
1.26793
1.30274
1.33797
1.37362
1.40965
1.44606
1.48281
1.51988
1.55725
1.59489
1.63276
1.67084
1.7091
1.7475
1.78601
1.82458
1.86319
1.90179
1.94034
1.97881
2.01716
2.05533
2.0933
2.13102
2.16845
2.20555
2.24226
2.27856
2.31439
2.34971
2.38448
2.41865
2.45217
2.48501
2.51713
2.54847
2.579
2.60867
2.63746
2.66532
2.69221
2.71809
2.74295
2.76674
2.78943
2.81099
2.8314
2.85064
2.86868
2.88549
2.90106
2.91538
2.92843
2.9402
2.95068
2.95986
2.96774
2.97432
2.9796
2.98355
2.98613
2.98729
2.98734
2.98609
2.98355
2.97975
2.9747
2.96842
2.96094
2.95228
2.94247
2.93153
2.91949
2.90639
2.89226
2.87712
2.86103
2.844
2.82609
2.80732
2.78774
2.76739
2.74632
2.72456
2.70215
2.67916
2.65561
2.63157
2.60709
2.58223
2.55708
2.53174
2.50628
2.48069
2.45499
2.42921
2.4034
2.37762
2.35194
2.32644
2.30121
2.27637
2.25203
2.22832
2.20422
2.17541
0.0175998
0.0319051
0.0410167
0.0476238
0.0531183
0.0580615
0.0627523
0.0673783
0.0720708
0.0769263
0.0820155
0.0873868
0.0930692
0.0990763
0.105411
0.112069
0.119048
0.126348
0.133974
0.141939
0.150263
0.158969
0.168086
0.177642
0.187666
0.198183
0.209216
0.220783
0.232895
0.245563
0.258791
0.272579
0.286926
0.30183
0.317287
0.333292
0.34984
0.366925
0.384543
0.402689
0.421358
0.440548
0.460256
0.480481
0.501224
0.522485
0.544266
0.566571
0.589404
0.61277
0.636675
0.661124
0.686125
0.711684
0.737808
0.764503
0.791776
0.819632
0.848077
0.877116
0.906753
0.936991
0.967834
0.999282
1.03134
1.064
1.09727
1.13114
1.1656
1.20066
1.2363
1.27252
1.30931
1.34664
1.38451
1.42291
1.46181
1.50119
1.54103
1.58131
1.622
1.66308
1.70451
1.74626
1.7883
1.83059
1.87311
1.9158
1.95863
2.00156
2.04454
2.08753
2.13049
2.17337
2.21613
2.25871
2.30107
2.34315
2.38492
2.42632
2.46729
2.50779
2.54777
2.58716
2.62594
2.66403
2.7014
2.73799
2.77376
2.80866
2.84263
2.87564
2.90764
2.93858
2.96843
2.99715
3.02469
3.05103
3.07613
3.09995
3.12247
3.14366
3.1635
3.18196
3.19901
3.21466
3.22887
3.24164
3.25296
3.26282
3.27122
3.27816
3.28363
3.28764
3.29009
3.29104
3.29067
3.28885
3.28561
3.28095
3.27491
3.26751
3.25878
3.24873
3.23741
3.22485
3.21107
3.19611
3.18002
3.16283
3.14458
3.1253
3.10505
3.08387
3.0618
3.03889
3.01518
2.99072
2.96556
2.93976
2.91336
2.88642
2.859
2.83117
2.803
2.77459
2.746
2.71726
2.68839
2.65946
2.63051
2.60162
2.57288
2.54439
2.51626
2.48868
2.46178
2.4357
2.40955
2.37992
0.019136
0.0369957
0.0474672
0.0549669
0.0611583
0.0666844
0.0718832
0.0769639
0.0820709
0.08731
0.0927584
0.0984708
0.104483
0.110815
0.117477
0.124475
0.131812
0.139496
0.147538
0.155955
0.164768
0.174003
0.183685
0.193842
0.204497
0.215672
0.227387
0.239654
0.252484
0.265885
0.279861
0.294413
0.309542
0.325247
0.341525
0.358375
0.375795
0.39378
0.412331
0.431444
0.451119
0.471356
0.492156
0.513519
0.535448
0.557947
0.58102
0.604672
0.628909
0.653738
0.679165
0.7052
0.731849
0.759121
0.787025
0.815569
0.84476
0.874606
0.905115
0.936294
0.968148
1.00068
1.0339
1.06781
1.10241
1.1377
1.17368
1.21035
1.24771
1.28574
1.32445
1.36383
1.40386
1.44452
1.48581
1.52771
1.57019
1.61324
1.65683
1.70094
1.74552
1.79056
1.83602
1.88187
1.92806
1.97456
2.02132
2.0683
2.11546
2.16275
2.21011
2.25751
2.30488
2.35218
2.39935
2.44633
2.49308
2.53954
2.58563
2.63132
2.67654
2.72122
2.76532
2.80877
2.85152
2.89352
2.93469
2.975
3.01439
3.05279
3.09016
3.12645
3.16161
3.19558
3.22834
3.25982
3.28998
3.3188
3.34623
3.37224
3.39679
3.41986
3.44141
3.46143
3.47988
3.49677
3.51206
3.52574
3.53782
3.54827
3.55711
3.56432
3.56991
3.57388
3.57613
3.57681
3.57595
3.5735
3.56949
3.56392
3.55684
3.54827
3.53824
3.52677
3.51391
3.4997
3.48416
3.46734
3.44929
3.43004
3.40964
3.38813
3.36557
3.342
3.31747
3.29203
3.26573
3.23863
3.21078
3.18223
3.15305
3.12328
3.093
3.06227
3.03117
2.99977
2.96816
2.93638
2.90446
2.87248
2.8405
2.80861
2.77691
2.74552
2.71459
2.68431
2.65486
2.62638
2.59801
2.56679
0.0204163
0.0415295
0.053246
0.0615704
0.0684005
0.0744525
0.0800985
0.0855664
0.0910128
0.0965518
0.102269
0.108225
0.114465
0.121017
0.127902
0.135133
0.142722
0.150681
0.159027
0.167778
0.176956
0.186584
0.196685
0.207283
0.218399
0.23005
0.242252
0.255017
0.268354
0.282271
0.296772
0.311861
0.32754
0.343811
0.360674
0.378131
0.396182
0.414828
0.434071
0.453911
0.474351
0.495395
0.517045
0.539306
0.562184
0.585684
0.609813
0.634579
0.659989
0.686053
0.712779
0.740179
0.768261
0.797037
0.826516
0.85671
0.887629
0.919281
0.951677
0.984826
1.01874
1.05341
1.08886
1.1251
1.16211
1.19991
1.2385
1.27787
1.31803
1.35896
1.40067
1.44313
1.48635
1.5303
1.57497
1.62034
1.66639
1.71309
1.76041
1.80834
1.85682
1.90584
1.95534
2.00529
2.05565
2.10637
2.15741
2.20871
2.26022
2.31189
2.36366
2.41548
2.46729
2.51903
2.57063
2.62203
2.67318
2.72399
2.77442
2.8244
2.87384
2.9227
2.97091
3.01839
3.0651
3.11096
3.15591
3.19989
3.24285
3.28471
3.32543
3.36494
3.4032
3.44014
3.47573
3.5099
3.54262
3.57384
3.60352
3.63163
3.65812
3.68298
3.70616
3.72764
3.74741
3.76544
3.78172
3.79623
3.80897
3.81992
3.8291
3.8365
3.84212
3.84598
3.84798
3.84828
3.84687
3.84372
3.83887
3.83234
3.82417
3.81437
3.803
3.79008
3.77565
3.75976
3.74244
3.72375
3.70372
3.68242
3.65988
3.63615
3.6113
3.58536
3.55841
3.53048
3.50165
3.47195
3.44146
3.41023
3.37833
3.3458
3.31272
3.27917
3.2452
3.21091
3.17637
3.14164
3.10677
3.07183
3.03691
3.00211
2.96753
2.93332
2.89964
2.8667
2.83469
2.80373
2.77303
2.74001
0.0229847
0.0456687
0.0583343
0.0673249
0.0746839
0.081177
0.0871976
0.0929866
0.0987083
0.104484
0.110404
0.11654
0.122941
0.129646
0.136682
0.144072
0.151833
0.159984
0.168541
0.177525
0.186957
0.196856
0.207244
0.21814
0.229562
0.241527
0.254047
0.267134
0.280797
0.295044
0.309883
0.325317
0.341354
0.357996
0.375248
0.393115
0.4116
0.430708
0.450443
0.470811
0.491818
0.513469
0.535772
0.558734
0.582364
0.606671
0.631664
0.657353
0.683749
0.710864
0.73871
0.7673
0.796645
0.826761
0.857658
0.889352
0.921853
0.955175
0.989329
1.02433
1.06018
1.09689
1.13448
1.17295
1.2123
1.25254
1.29367
1.33569
1.3786
1.4224
1.46706
1.5126
1.55899
1.60621
1.65426
1.7031
1.75272
1.80309
1.85416
1.90592
1.95833
2.01133
2.0649
2.11899
2.17354
2.22851
2.28384
2.33947
2.39535
2.45142
2.50761
2.56386
2.6201
2.67626
2.73228
2.78809
2.84361
2.89877
2.95349
3.00771
3.06134
3.11432
3.16658
3.21803
3.26862
3.31828
3.36693
3.41451
3.46094
3.50618
3.55014
3.59278
3.63403
3.67383
3.71214
3.74889
3.78404
3.81755
3.84936
3.87945
3.90777
3.93429
3.95899
3.98182
4.00278
4.02184
4.03898
4.05421
4.0675
4.07885
4.08827
4.09575
4.10131
4.10495
4.10662
4.10646
4.10442
4.1005
4.09475
4.08719
4.07787
4.06681
4.05405
4.03964
4.02362
4.00604
3.98693
3.96636
3.94437
3.92102
3.89635
3.87044
3.84333
3.81508
3.78574
3.75539
3.72407
3.69185
3.65879
3.62496
3.5904
3.5552
3.51942
3.48312
3.44639
3.4093
3.37194
3.33436
3.29664
3.25885
3.22109
3.18347
3.1461
3.10914
3.07276
3.03719
3.00261
2.96914
2.93602
2.90113
0.0259118
0.04922
0.0626023
0.072115
0.079894
0.0867415
0.0930646
0.0991124
0.105055
0.111016
0.117094
0.123363
0.12988
0.13669
0.143829
0.151322
0.159194
0.167465
0.176154
0.185282
0.194867
0.204927
0.215482
0.226549
0.238142
0.250279
0.262971
0.27623
0.290066
0.304488
0.319507
0.335128
0.351361
0.368213
0.385692
0.403805
0.42256
0.441966
0.46203
0.482762
0.504171
0.526267
0.549061
0.572564
0.596787
0.621744
0.647446
0.673908
0.701144
0.729168
0.757995
0.787643
0.818126
0.849461
0.881664
0.91475
0.948736
0.983637
1.01947
1.05624
1.09397
1.13266
1.17233
1.21299
1.25465
1.2973
1.34096
1.38561
1.43127
1.47792
1.52556
1.57417
1.62375
1.67427
1.72571
1.77805
1.83127
1.88532
1.94017
1.99579
2.05213
2.10915
2.1668
2.22503
2.28378
2.343
2.40261
2.46257
2.5228
2.58324
2.64381
2.70445
2.76507
2.82561
2.88598
2.94611
3.00592
3.06532
3.12424
3.1826
3.2403
3.29729
3.35346
3.40876
3.4631
3.5164
3.56859
3.61961
3.66937
3.71781
3.76486
3.81045
3.85452
3.897
3.93785
3.97701
4.01442
4.05003
4.08381
4.1157
4.14567
4.17369
4.19973
4.22375
4.24573
4.26567
4.28353
4.29932
4.31302
4.32463
4.33416
4.3416
4.34699
4.3503
4.35156
4.35083
4.34807
4.34331
4.33659
4.32795
4.31742
4.30506
4.29089
4.27497
4.25734
4.23805
4.21717
4.19473
4.1708
4.14543
4.11869
4.09064
4.06132
4.03082
3.99918
3.96648
3.93277
3.89812
3.86259
3.82625
3.78916
3.7514
3.71302
3.6741
3.63473
3.59497
3.55491
3.51462
3.47417
3.43366
3.39319
3.35286
3.31281
3.27319
3.2342
3.19605
3.15892
3.12292
3.08735
3.05038
0.0286203
0.0520563
0.0659693
0.0758804
0.0839817
0.0911028
0.0976604
0.103909
0.110023
0.116129
0.122326
0.128694
0.135293
0.142172
0.149372
0.156924
0.164853
0.173183
0.181933
0.191124
0.200775
0.210901
0.221522
0.232651
0.244305
0.256497
0.26924
0.282547
0.296429
0.310898
0.325965
0.341641
0.357938
0.374867
0.392439
0.410665
0.429557
0.449127
0.469389
0.490355
0.512038
0.534452
0.557612
0.581532
0.606229
0.631719
0.65802
0.685149
0.713122
0.741959
0.771678
0.8023
0.833843
0.866329
0.899776
0.934203
0.969629
1.00607
1.04355
1.08207
1.12167
1.16234
1.2041
1.24696
1.29093
1.33602
1.38223
1.42955
1.478
1.52755
1.5782
1.62993
1.68274
1.7366
1.79148
1.84735
1.90419
1.96196
2.02061
2.08011
2.1404
2.20143
2.26315
2.3255
2.38842
2.45184
2.51569
2.57991
2.64441
2.70913
2.77399
2.83889
2.90378
2.96854
3.03312
3.09741
3.16133
3.2248
3.28772
3.35001
3.41158
3.47234
3.53221
3.59111
3.64896
3.70566
3.76115
3.81535
3.86818
3.91956
3.96943
4.01771
4.06433
4.10924
4.15238
4.19368
4.23309
4.27056
4.30604
4.3395
4.37089
4.40017
4.42732
4.45231
4.47512
4.49572
4.51411
4.53027
4.54421
4.55591
4.56539
4.57266
4.57772
4.5806
4.58132
4.57994
4.57637
4.57067
4.56291
4.55313
4.54136
4.52766
4.51206
4.49461
4.47538
4.45441
4.43177
4.4075
4.38168
4.35436
4.32561
4.29549
4.26407
4.23141
4.19758
4.16264
4.12666
4.08971
4.05185
4.01315
3.97367
3.93349
3.89267
3.8513
3.80944
3.76717
3.72458
3.68174
3.63874
3.59567
3.55264
3.50975
3.46715
3.42501
3.3835
3.34285
3.30323
3.26476
3.22675
3.18765
0.0310356
0.0541782
0.0684445
0.0786368
0.0869672
0.0942842
0.101011
0.107406
0.113644
0.119854
0.126136
0.132571
0.139221
0.146138
0.153365
0.160934
0.168875
0.177213
0.185967
0.195158
0.204803
0.214917
0.225517
0.236619
0.248236
0.260382
0.273073
0.286322
0.300143
0.314552
0.329562
0.345188
0.361444
0.378346
0.395909
0.414149
0.433082
0.452724
0.473092
0.494204
0.516077
0.538729
0.562178
0.586443
0.611544
0.637504
0.664345
0.692087
0.720752
0.750364
0.780946
0.812523
0.845116
0.878752
0.91345
0.949235
0.986127
1.02415
1.06331
1.10364
1.14516
1.18787
1.23179
1.27693
1.3233
1.37091
1.41976
1.46984
1.52115
1.57369
1.62743
1.68237
1.73848
1.79573
1.85411
1.91356
1.97406
2.03557
2.09803
2.16139
2.22561
2.29062
2.35635
2.42275
2.48975
2.55726
2.62522
2.69355
2.76217
2.83098
2.89991
2.96888
3.03778
3.10653
3.17503
3.2432
3.31095
3.37817
3.44477
3.51067
3.57576
3.63996
3.70317
3.76531
3.8263
3.88604
3.94445
4.00145
4.05697
4.11092
4.16323
4.21383
4.26264
4.30961
4.35467
4.39775
4.43882
4.4778
4.51467
4.54936
4.58185
4.6121
4.64007
4.66575
4.6891
4.71012
4.72879
4.74511
4.75906
4.77066
4.7799
4.78682
4.79141
4.79372
4.79376
4.79164
4.78714
4.78043
4.77157
4.7606
4.74756
4.73249
4.71546
4.69651
4.6757
4.65309
4.62874
4.60271
4.57508
4.5459
4.51524
4.48318
4.44977
4.4151
4.37922
4.3422
4.30411
4.26503
4.22501
4.18413
4.14246
4.10006
4.05701
4.01337
3.96923
3.92467
3.87976
3.83458
3.78924
3.74381
3.69841
3.65315
3.60819
3.56368
3.51981
3.47679
3.43479
3.39392
3.35356
3.31239
0.0331384
0.0556314
0.0700868
0.0804504
0.0889206
0.0963574
0.103189
0.109674
0.115988
0.122262
0.128594
0.135064
0.141737
0.148665
0.15589
0.163447
0.171364
0.179665
0.188372
0.197502
0.207075
0.217107
0.227614
0.238611
0.250115
0.262139
0.274697
0.287807
0.301488
0.315759
0.330636
0.346138
0.362285
0.379095
0.396589
0.414787
0.433709
0.453376
0.473812
0.495038
0.517077
0.53995
0.563679
0.588283
0.613786
0.640219
0.66761
0.695986
0.725376
0.755808
0.78731
0.81991
0.853635
0.888513
0.924567
0.961824
1.0003
1.04003
1.08103
1.12331
1.1669
1.21181
1.25805
1.30564
1.35458
1.40487
1.45651
1.5095
1.56383
1.61949
1.67645
1.7347
1.79421
1.85494
1.91686
1.97994
2.04412
2.10935
2.17559
2.24277
2.31083
2.3797
2.44932
2.51961
2.59049
2.66188
2.73371
2.80588
2.87831
2.9509
3.02357
3.09622
3.16876
3.24109
3.31311
3.38472
3.45583
3.52634
3.59614
3.66515
3.73327
3.80039
3.86644
3.93131
3.99491
4.05716
4.11798
4.17727
4.23496
4.29096
4.34521
4.39762
4.44813
4.49667
4.54317
4.58759
4.62985
4.66991
4.70773
4.74326
4.77645
4.80728
4.83572
4.86174
4.88532
4.90645
4.92511
4.9413
4.95502
4.96628
4.97508
4.98145
4.9854
4.98697
4.98626
4.98322
4.97771
4.96992
4.95991
4.94771
4.93338
4.91696
4.89851
4.87809
4.85575
4.83157
4.8056
4.77792
4.74859
4.71768
4.68526
4.65141
4.6162
4.57969
4.54195
4.50306
4.46308
4.42209
4.38015
4.33733
4.2937
4.24933
4.20429
4.15865
4.11249
4.06588
4.01891
3.97167
3.92423
3.87669
3.82917
3.78178
3.73467
3.68801
3.64197
3.59675
3.55253
3.50942
3.46685
3.42373
0.0349352
0.056486
0.0709801
0.0814125
0.0899377
0.0974207
0.104292
0.110811
0.117155
0.123452
0.129801
0.13628
0.142952
0.149866
0.15706
0.16457
0.172423
0.180644
0.189256
0.198277
0.207725
0.21762
0.227979
0.23882
0.250165
0.262038
0.274448
0.28741
0.300944
0.31507
0.32981
0.345186
0.361221
0.377939
0.395365
0.413522
0.432438
0.452137
0.472649
0.494004
0.516229
0.539349
0.563392
0.588388
0.614373
0.641379
0.669439
0.698585
0.72885
0.760269
0.792874
0.826698
0.861773
0.898124
0.93578
0.974764
1.0151
1.05681
1.09992
1.14444
1.19039
1.23778
1.28663
1.33694
1.38871
1.44194
1.49662
1.55275
1.6103
1.66926
1.7296
1.79129
1.85429
1.91857
1.98408
2.05077
2.11858
2.18747
2.25737
2.3282
2.39991
2.47242
2.54564
2.61951
2.69393
2.76883
2.8441
2.91967
2.99543
3.0713
3.14717
3.22294
3.29853
3.37383
3.44873
3.52314
3.59696
3.67008
3.74241
3.81385
3.88429
3.95364
4.02181
4.08871
4.15423
4.2183
4.28082
4.34171
4.4009
4.45829
4.51382
4.56741
4.61898
4.66848
4.71584
4.761
4.8039
4.84451
4.88276
4.91861
4.95204
4.983
5.01148
5.03743
5.06086
5.08174
5.10006
5.11582
5.12902
5.13968
5.14781
5.15342
5.15655
5.15723
5.15566
5.15154
5.14494
5.13602
5.12482
5.11138
5.09576
5.07802
5.0582
5.03638
5.01262
4.98697
4.95952
4.93033
4.89946
4.86701
4.83303
4.7976
4.76079
4.72269
4.68334
4.64284
4.60124
4.55861
4.51503
4.47057
4.42528
4.37925
4.33253
4.2852
4.23733
4.189
4.14029
4.09128
4.04206
3.99272
3.94337
3.89414
3.84517
3.79661
3.74864
3.70146
3.65523
3.61009
3.56549
3.52064
0.0364303
0.0567868
0.0711865
0.0816014
0.0901092
0.097573
0.104427
0.110931
0.117261
0.123543
0.129873
0.136328
0.142969
0.149846
0.156995
0.164448
0.172232
0.180371
0.188887
0.197799
0.207128
0.216891
0.227108
0.237796
0.248974
0.260654
0.272856
0.285612
0.298947
0.312889
0.327464
0.342701
0.358632
0.375285
0.392694
0.410889
0.429901
0.449766
0.470514
0.49218
0.514807
0.538418
0.563041
0.588697
0.615427
0.643281
0.672304
0.702536
0.734014
0.766777
0.800866
0.836325
0.873177
0.911447
0.951163
0.992346
1.03501
1.07919
1.12488
1.17211
1.22089
1.27122
1.32311
1.37655
1.43154
1.48806
1.54611
1.60565
1.66666
1.72912
1.79298
1.8582
1.92474
1.99255
2.06158
2.13176
2.20304
2.27534
2.34861
2.42276
2.49772
2.5734
2.64974
2.72664
2.80401
2.88176
2.95981
3.03806
3.1164
3.19476
3.27302
3.35109
3.42887
3.50626
3.58316
3.65946
3.73507
3.80988
3.88381
3.95674
4.02858
4.09923
4.16861
4.23661
4.30315
4.36814
4.43149
4.49312
4.55295
4.61091
4.66691
4.72088
4.77275
4.82246
4.86995
4.91517
4.95805
4.99855
5.03663
5.07224
5.10534
5.13592
5.16393
5.18937
5.21221
5.23244
5.25005
5.26505
5.27744
5.28723
5.29443
5.29907
5.30119
5.30089
5.2983
5.29299
5.28526
5.27517
5.26277
5.24811
5.23126
5.21226
5.19117
5.16807
5.14301
5.11607
5.08731
5.05681
5.02464
4.99087
4.95559
4.91885
4.88075
4.84134
4.8007
4.7589
4.71601
4.6721
4.62723
4.58148
4.5349
4.48757
4.43955
4.3909
4.34171
4.29203
4.24196
4.19156
4.14092
4.09014
4.03933
3.9886
3.93808
3.88795
3.83836
3.78951
3.74154
3.69461
3.64825
3.60194
0.0377504
0.0567455
0.0709903
0.0813266
0.0897606
0.0971552
0.103946
0.110391
0.116667
0.122899
0.129181
0.135584
0.142167
0.148972
0.156035
0.163387
0.171053
0.179054
0.187415
0.196157
0.205304
0.214876
0.224895
0.235385
0.24637
0.257876
0.269937
0.282577
0.295827
0.309718
0.324283
0.339557
0.355578
0.372386
0.390028
0.408541
0.427958
0.448319
0.469658
0.492007
0.515374
0.539816
0.565403
0.592201
0.620262
0.649621
0.680316
0.712389
0.745877
0.780817
0.817237
0.85516
0.894622
0.935655
0.978293
1.02254
1.06841
1.11589
1.165
1.21574
1.26811
1.32209
1.37769
1.43488
1.49364
1.55394
1.61576
1.67905
1.74378
1.80991
1.87737
1.94613
2.01613
2.0873
2.15959
2.23292
2.30724
2.38246
2.45852
2.53534
2.61284
2.69093
2.76954
2.84857
2.92794
3.00756
3.08734
3.16719
3.24701
3.32671
3.4062
3.48537
3.56414
3.6424
3.72005
3.79701
3.87317
3.94844
4.02272
4.09592
4.16794
4.23869
4.30809
4.37603
4.44243
4.50721
4.57028
4.63157
4.691
4.74848
4.80396
4.85735
4.90858
4.9576
5.00436
5.0488
5.09086
5.13049
5.16767
5.20234
5.23448
5.26405
5.29103
5.31541
5.33716
5.35628
5.37277
5.38662
5.39784
5.40645
5.41245
5.41588
5.41678
5.41544
5.41154
5.405
5.39607
5.38477
5.37118
5.35534
5.3373
5.31713
5.29489
5.27065
5.24447
5.21642
5.18657
5.155
5.12177
5.08697
5.05066
5.01293
4.97385
4.93348
4.8919
4.84917
4.80536
4.76055
4.71479
4.66814
4.62068
4.57246
4.52354
4.474
4.42388
4.37328
4.32225
4.27087
4.21923
4.1674
4.1155
4.06365
4.01196
3.9606
3.90972
3.85951
3.81011
3.7617
3.71384
3.66637
0.038945
0.056516
0.0704476
0.0805953
0.0888625
0.0961032
0.102753
0.109073
0.115236
0.121365
0.127549
0.133855
0.140337
0.147035
0.153984
0.161216
0.168759
0.176642
0.184889
0.193521
0.202563
0.212042
0.221987
0.232427
0.243392
0.254916
0.267035
0.279788
0.293223
0.307379