/*--------------------------------*- C++ -*----------------------------------*\
| =========                 |                                                 |
| \\      /  F ield         | OpenFOAM: The Open Source CFD Toolbox           |
|  \\    /   O peration     | Version:  2406                                  |
|   \\  /    A nd           | Website:  www.openfoam.com                      |
|    \\/     M anipulation  |                                                 |
\*---------------------------------------------------------------------------*/
FoamFile
{
    version     2.0;
    format      ascii;
    arch        "LSB;label=32;scalar=64";
    class       volScalarField;
    location    "281";
    object      nut;
}
// * * * * * * * * * * * * * * * * * * * * * * * * * * * * * * * * * * * * * //

dimensions      [0 2 -1 0 0 0 0];

internalField   nonuniform List<scalar> 
12225
(
2.70507e-05
3.5584e-05
4.05203e-05
4.31919e-05
4.44508e-05
4.4963e-05
4.49759e-05
4.47472e-05
4.45657e-05
4.4201e-05
4.38553e-05
4.35241e-05
4.32273e-05
4.29454e-05
4.27115e-05
4.24752e-05
4.23129e-05
4.20923e-05
0.000216418
8.45159e-05
5.58945e-05
4.40578e-05
3.83785e-05
3.53503e-05
3.38604e-05
3.30681e-05
3.28556e-05
3.28778e-05
3.32152e-05
3.36054e-05
3.42284e-05
3.48017e-05
3.558e-05
3.62462e-05
3.70655e-05
3.77743e-05
0.000573254
0.000311641
0.000194368
0.000142165
0.000113216
9.44932e-05
8.20291e-05
7.33121e-05
6.67999e-05
6.19624e-05
5.80405e-05
5.5113e-05
5.25306e-05
5.07126e-05
4.89078e-05
4.77845e-05
4.66426e-05
4.53034e-05
0.000751696
0.000624913
0.000451566
0.000351003
0.000289061
0.000246569
0.000216699
0.000194295
0.000177764
0.000164289
0.000154046
0.000145063
0.000138201
0.000131713
0.000126905
0.000121889
0.000118425
0.000113669
0.000825685
0.000787938
0.000687194
0.000591601
0.000517091
0.000458118
0.000413491
0.000377229
0.000349674
0.000325962
0.000307902
0.000291297
0.000278924
0.000266586
0.000257881
0.000248257
0.000241939
0.000233786
0.000847345
0.000838162
0.000802523
0.000753212
0.000699335
0.000648238
0.000604836
0.000565863
0.000534207
0.000505358
0.000482494
0.000460719
0.000444084
0.000427081
0.000414952
0.000401175
0.000392358
0.000380386
0.00085136
0.000849321
0.000839117
0.000823757
0.000798276
0.000768412
0.000739173
0.00070955
0.000683358
0.000657721
0.000636208
0.000614795
0.000597705
0.000579789
0.000566523
0.000551233
0.000541254
0.000527085
0.000851688
0.000851471
0.000849544
0.000844613
0.000835855
0.000824557
0.000810184
0.000793464
0.000777243
0.000760012
0.000744561
0.000728286
0.000714567
0.000699764
0.000688167
0.000674777
0.000665357
0.000652394
0.000851749
0.000851443
0.000851043
0.000849885
0.000847535
0.000843618
0.000838594
0.00083127
0.000823649
0.000814988
0.000806298
0.000796548
0.000787795
0.000778067
0.000769838
0.000760519
0.000753006
0.000743798
0.000851786
0.000851366
0.000851069
0.000850609
0.000850033
0.000848808
0.000847331
0.000844857
0.000841997
0.000838303
0.000834502
0.000829861
0.000825422
0.000820271
0.000815565
0.000810284
0.000805542
0.000799747
0.000851794
0.000851356
0.000851021
0.000850624
0.000850325
0.000849824
0.000849338
0.000848517
0.000847604
0.00084626
0.000844872
0.000843007
0.0008412
0.000838881
0.000836816
0.000834102
0.000832039
0.000828841
0.000851792
0.000851359
0.000851001
0.000850611
0.000850306
0.000849938
0.000849631
0.00084921
0.000848815
0.000848233
0.000847676
0.000846875
0.000846137
0.000845092
0.000844212
0.000842914
0.000841974
0.000840423
0.000851787
0.000851362
0.000850989
0.000850608
0.00085028
0.000849936
0.000849644
0.000849319
0.00084904
0.000848697
0.000848398
0.000848001
0.000847658
0.000847179
0.000846786
0.00084621
0.000845771
0.0008451
0.000851783
0.000851364
0.00085098
0.000850605
0.000850263
0.000849925
0.000849622
0.000849315
0.000849043
0.000848758
0.000848506
0.000848232
0.00084799
0.000847714
0.000847472
0.000847185
0.000846936
0.000846635
0.000851781
0.000851364
0.000850974
0.0008506
0.000850251
0.000849916
0.000849602
0.0008493
0.000849018
0.000848744
0.000848488
0.000848238
0.000848004
0.000847773
0.000847556
0.00084734
0.000847136
0.000846932
0.00085178
0.000851363
0.00085097
0.000850596
0.000850242
0.000849906
0.000849588
0.000849285
0.000848998
0.000848724
0.000848463
0.000848213
0.000847976
0.000847748
0.000847531
0.000847322
0.000847123
0.000846931
0.000851779
0.000851362
0.000850967
0.000850592
0.000850236
0.000849899
0.000849578
0.000849273
0.000848984
0.000848707
0.000848444
0.000848192
0.000847952
0.000847722
0.000847502
0.000847292
0.00084709
0.000846898
0.000851779
0.000851362
0.000850965
0.000850589
0.000850233
0.000849894
0.000849572
0.000849265
0.000848974
0.000848695
0.00084843
0.000848177
0.000847934
0.000847703
0.000847481
0.000847269
0.000847066
0.000846871
0.000851779
0.000851362
0.000850965
0.000850589
0.000850232
0.000849892
0.00084957
0.000849262
0.00084897
0.000848691
0.000848424
0.00084817
0.000847927
0.000847694
0.000847471
0.000847258
0.000847054
0.000846858
0.000851779
0.000851362
0.000850966
0.000850591
0.000850234
0.000849895
0.000849573
0.000849266
0.000848973
0.000848695
0.000848428
0.000848174
0.00084793
0.000847697
0.000847473
0.000847259
0.000847052
0.000846855
0.000851779
0.000851364
0.000850968
0.000850595
0.000850238
0.000849902
0.000849578
0.000849274
0.000848979
0.0008487
0.000848427
0.000848168
0.00084791
0.000847667
0.00084742
0.000847187
0.000846947
0.000846723
0.000851776
0.000851369
0.000850969
0.000850603
0.000850243
0.00084991
0.000849573
0.000849254
0.000848916
0.000848587
0.000848223
0.000847865
0.000847456
0.00084706
0.000846596
0.00084616
0.000845637
0.00084517
0.000851766
0.000851388
0.000850969
0.000850624
0.000850209
0.000849789
0.000849234
0.000848616
0.000847803
0.000846896
0.000845768
0.00084456
0.000843125
0.000841664
0.000839958
0.000838333
0.000836386
0.000834699
0.000851746
0.000851484
0.00085091
0.000850388
0.000849138
0.000847445
0.000844951
0.000841942
0.000838073
0.000833847
0.000828961
0.000823929
0.000818447
0.000813019
0.000807264
0.000801726
0.000795842
0.000790778
0.000851902
0.000851484
0.000848989
0.000845043
0.000837097
0.00082746
0.000815895
0.000802854
0.00078838
0.00077437
0.000759663
0.000746077
0.000732118
0.000719684
0.000706819
0.000695842
0.000684088
0.000674695
0.000852286
0.000845091
0.000826114
0.00080337
0.000769312
0.000735477
0.000700809
0.000669707
0.000639499
0.000613594
0.000588613
0.000567745
0.000547316
0.000530659
0.000513866
0.00050061
0.000486568
0.000476067
0.000832326
0.000795026
0.000710426
0.000628093
0.000558113
0.000503168
0.000455763
0.000418871
0.000386625
0.000361594
0.000338764
0.000321228
0.000304415
0.000291772
0.000278912
0.000269549
0.00025937
0.000252305
0.000733649
0.00054378
0.000397994
0.000313132
0.000257946
0.000219673
0.000190514
0.000169567
0.000152553
0.000139992
0.000129095
0.000121018
0.000113528
0.000108076
0.000102634
9.88117e-05
9.46879e-05
9.19152e-05
0.000325677
0.000164837
0.000111413
8.60789e-05
7.08262e-05
6.13549e-05
5.50186e-05
5.08857e-05
4.79533e-05
4.60099e-05
4.45906e-05
4.36882e-05
4.30394e-05
4.2695e-05
4.24553e-05
4.24393e-05
4.24359e-05
4.26226e-05
3.2663e-05
3.90563e-05
4.3892e-05
4.69717e-05
4.93653e-05
5.11698e-05
5.25342e-05
5.34594e-05
5.4114e-05
5.44634e-05
5.46906e-05
5.46974e-05
5.46544e-05
5.455e-05
5.43772e-05
5.41699e-05
5.3945e-05
5.37084e-05
2.8381e-06
7.82024e-06
9.38927e-06
1.06565e-05
1.16504e-05
1.24355e-05
1.30664e-05
1.35823e-05
1.40122e-05
1.43981e-05
1.47709e-05
1.51348e-05
1.55007e-05
1.58768e-05
1.62666e-05
1.6669e-05
1.70816e-05
1.75043e-05
1.7947e-05
1.84425e-05
1.90443e-05
1.97469e-05
2.05128e-05
2.13272e-05
2.21887e-05
2.30998e-05
2.40629e-05
2.50785e-05
2.61441e-05
2.72527e-05
2.8392e-05
2.95554e-05
3.07352e-05
3.19227e-05
3.31123e-05
3.42989e-05
3.54792e-05
3.66505e-05
3.78114e-05
3.89609e-05
4.00992e-05
4.1227e-05
4.2346e-05
4.34589e-05
4.45698e-05
4.5684e-05
4.68094e-05
4.79565e-05
4.90994e-05
5.02349e-05
5.1365e-05
5.24901e-05
5.36105e-05
5.47269e-05
5.58396e-05
5.6949e-05
5.80553e-05
5.91587e-05
6.02594e-05
6.13574e-05
6.24528e-05
6.35456e-05
6.46356e-05
6.57228e-05
6.68069e-05
6.78877e-05
6.89648e-05
7.00382e-05
7.11073e-05
7.21718e-05
7.32312e-05
7.42853e-05
7.53333e-05
7.6375e-05
7.74098e-05
7.84371e-05
7.94564e-05
8.04671e-05
8.14687e-05
8.24606e-05
8.34422e-05
8.44129e-05
8.53721e-05
8.63193e-05
8.72536e-05
8.81747e-05
8.90817e-05
8.99742e-05
9.08514e-05
9.17128e-05
9.25576e-05
9.3385e-05
9.41944e-05
9.49847e-05
9.57551e-05
9.65045e-05
9.72317e-05
9.79355e-05
9.86148e-05
9.92689e-05
9.98981e-05
0.000100506
0.000101096
0.00010166
0.000102202
0.000102721
0.000103217
0.00010369
0.000104139
0.000104563
0.000104963
0.000105338
0.000105689
0.000106014
0.000106313
0.000106586
0.000106834
0.000107056
0.000107251
0.00010742
0.000107563
0.000107679
0.000107768
0.000107831
0.000107868
0.000107878
0.000107861
0.000107819
0.00010775
0.000107655
0.000107534
0.000107388
0.000107222
0.000107024
0.0001068
0.000106548
0.000106277
0.000105987
0.000105668
0.000105327
0.000104962
0.000104575
0.000104167
0.000103737
0.000103286
0.000102815
0.000102324
0.000101814
0.000101285
0.000100738
0.000100173
9.95917e-05
9.89941e-05
9.83809e-05
9.77529e-05
9.71107e-05
9.6455e-05
9.57865e-05
9.5106e-05
9.44142e-05
9.37121e-05
9.30005e-05
9.22809e-05
9.15559e-05
9.08352e-05
9.0213e-05
8.97787e-05
8.93688e-05
8.89575e-05
8.85427e-05
8.81243e-05
8.77022e-05
8.72762e-05
8.68454e-05
8.64075e-05
8.59573e-05
8.54845e-05
8.4958e-05
8.43185e-05
8.24596e-05
4.46236e-06
1.82857e-05
4.05271e-05
5.98675e-05
7.40649e-05
8.40753e-05
9.11669e-05
9.62285e-05
9.97905e-05
0.000102154
0.000103868
0.000105511
0.000107308
0.000109289
0.000111392
0.000113523
0.000115598
0.000117564
0.00011941
0.000121191
0.000122719
0.000124052
0.000125359
0.000126749
0.000128295
0.00013007
0.000132156
0.00013466
0.000137733
0.000141479
0.000145671
0.000150294
0.000155324
0.000160758
0.000166567
0.000172711
0.000179185
0.000185949
0.00019297
0.000200213
0.000207642
0.000215223
0.000222921
0.000230703
0.000238539
0.000246403
0.000254281
0.000262176
0.000270125
0.000278114
0.000286155
0.000294245
0.000302389
0.00031059
0.000318852
0.000327177
0.000335568
0.000344031
0.000352568
0.000361183
0.000369878
0.000378658
0.000387523
0.000396476
0.000405519
0.000414652
0.000423877
0.000433193
0.0004426
0.000452097
0.000461684
0.000471358
0.000481118
0.00049096
0.000500881
0.000510878
0.000520948
0.000531084
0.000541284
0.000551541
0.000561851
0.000572207
0.000582604
0.000593036
0.000603496
0.000613977
0.000624474
0.000634979
0.000645487
0.000655991
0.000666486
0.000676965
0.000687423
0.000697855
0.000708252
0.000718606
0.000728903
0.00073912
0.000749217
0.000759122
0.000768704
0.000777743
0.000786201
0.000794603
0.00080285
0.000810962
0.00081893
0.000826749
0.000834412
0.000841913
0.000849247
0.000856409
0.000863391
0.00087019
0.000876799
0.000883214
0.000889431
0.000895444
0.000901249
0.000906843
0.000912221
0.000917381
0.000922317
0.000927027
0.000931508
0.000935757
0.000939772
0.000943552
0.000947097
0.000950407
0.000953481
0.00095631
0.000958914
0.000961346
0.000963436
0.000965145
0.000966669
0.000968118
0.000969252
0.000970131
0.000970771
0.000971171
0.000971335
0.000971266
0.000970966
0.000970439
0.00096969
0.000968723
0.000967541
0.000966149
0.000964551
0.000962753
0.00096076
0.000958577
0.000956209
0.000953663
0.000950944
0.000948059
0.000945014
0.000941814
0.000938466
0.000934971
0.000931328
0.000927499
0.000923283
0.000917686
0.000910425
0.000902624
0.00089462
0.000886511
0.000878331
0.000870094
0.000861807
0.000853467
0.000845051
0.000836512
0.000827697
0.000818337
0.000807006
0.000779073
5.77782e-06
2.72542e-05
6.26879e-05
9.5495e-05
0.000121903
0.000141927
0.000156613
0.000167281
0.000175086
0.000180891
0.000185427
0.00018928
0.00019284
0.000196323
0.000199816
0.000203332
0.000206842
0.000210308
0.000213694
0.000216964
0.000220378
0.000224122
0.00022831
0.000233044
0.000238421
0.000244522
0.000251395
0.000259034
0.000267336
0.000276178
0.000285763
0.000296089
0.000307117
0.000318805
0.000331468
0.000344864
0.00035873
0.000372998
0.000387614
0.000402524
0.00041768
0.000433044
0.000448576
0.000464244
0.000480024
0.000495897
0.000511849
0.000527882
0.000544014
0.000560243
0.000576574
0.00059301
0.000609556
0.000626218
0.000643001
0.000659909
0.00067695
0.000694126
0.000711443
0.00072891
0.00074653
0.000764307
0.000782242
0.000800338
0.000818596
0.000837015
0.000855595
0.000874334
0.00089323
0.000912279
0.000931478
0.000950822
0.000970304
0.000989918
0.00100966
0.00102951
0.00104948
0.00106954
0.00108969
0.00110992
0.00113022
0.00115057
0.00117097
0.0011914
0.00121185
0.0012323
0.00125274
0.00127317
0.00129356
0.0013139
0.00133418
0.00135438
0.00137449
0.00139449
0.00141436
0.00143407
0.00145359
0.00147288
0.00149188
0.00151051
0.00152869
0.00154636
0.00156362
0.00158064
0.00159738
0.00161382
0.00162995
0.00164577
0.00166126
0.0016764
0.00169119
0.00170561
0.00171965
0.00173331
0.00174656
0.00175941
0.00177184
0.00178384
0.0017954
0.00180652
0.00181719
0.0018274
0.00183714
0.00184641
0.00185521
0.00186351
0.00187134
0.00187867
0.00188551
0.00189185
0.00189771
0.00190307
0.00190796
0.00191247
0.00191636
0.00191944
0.00192215
0.00192456
0.0019264
0.00192773
0.00192856
0.0019289
0.00192875
0.00192812
0.00192703
0.00192546
0.00192344
0.00192097
0.00191806
0.00191472
0.00191096
0.00190679
0.00190221
0.00189725
0.00189191
0.0018862
0.00188013
0.00187373
0.001867
0.00185995
0.00185259
0.00184494
0.00183699
0.00182868
0.00181978
0.00180949
0.00179751
0.00178467
0.00177138
0.00175783
0.00174408
0.00173018
0.00171614
0.00170196
0.0016876
0.00167296
0.00165775
0.00164121
0.00162059
0.00157844
6.7132e-06
3.7577e-05
8.41955e-05
0.000126197
0.000159927
0.000185817
0.000205196
0.000219516
0.000230113
0.000238122
0.000244464
0.000249849
0.000254783
0.000259594
0.000264474
0.000269523
0.000274795
0.000280328
0.000286172
0.000292407
0.000299158
0.000306546
0.000314674
0.000323627
0.000333475
0.000344264
0.000356014
0.000368722
0.000382364
0.000396932
0.000412449
0.000428904
0.000446279
0.000464547
0.000483282
0.000502456
0.000522128
0.000542244
0.000562739
0.000583547
0.000604621
0.000625949
0.000647501
0.000669254
0.000691196
0.000713334
0.000735695
0.000758249
0.000780953
0.000803805
0.000826809
0.000849971
0.000873297
0.000896791
0.000920461
0.000944313
0.000968351
0.000992581
0.00101701
0.00104164
0.00106648
0.00109153
0.0011168
0.00114228
0.00116798
0.00119388
0.00122
0.00124632
0.00127284
0.00129956
0.00132647
0.00135355
0.00138081
0.00140822
0.00143579
0.00146349
0.00149132
0.00151926
0.0015473
0.00157542
0.0016036
0.00163184
0.00166011
0.00168839
0.00171667
0.00174493
0.00177315
0.00180132
0.0018294
0.00185739
0.00188525
0.00191298
0.00194054
0.0019679
0.00199505
0.00202194
0.00204854
0.00207481
0.00210069
0.00212614
0.00215109
0.00217557
0.00219965
0.00222335
0.00224665
0.00226954
0.002292
0.00231402
0.00233558
0.00235665
0.00237723
0.0023973
0.00241684
0.00243583
0.00245428
0.00247215
0.00248944
0.00250614
0.00252223
0.0025377
0.00255255
0.00256676
0.00258033
0.00259324
0.00260548
0.00261706
0.00262797
0.00263819
0.00264773
0.0026566
0.00266478
0.00267227
0.00267918
0.00268555
0.00269089
0.00269528
0.00269924
0.0027026
0.00270523
0.00270716
0.00270841
0.00270898
0.00270887
0.0027081
0.00270668
0.00270462
0.00270192
0.0026986
0.00269467
0.00269014
0.00268502
0.00267933
0.00267308
0.00266628
0.00265895
0.00265111
0.00264277
0.00263395
0.00262466
0.00261493
0.00260476
0.00259417
0.00258316
0.00257168
0.00255954
0.00254624
0.00253157
0.00251598
0.00249979
0.00248321
0.00246633
0.00244921
0.00243188
0.00241435
0.00239659
0.00237848
0.00235969
0.00233927
0.002314
0.00226922
7.36995e-06
4.82057e-05
0.000104823
0.000154205
0.000193679
0.000223972
0.000246804
0.000263893
0.000276767
0.000286717
0.000294789
0.000301789
0.000308308
0.000314752
0.000321381
0.00032836
0.000335794
0.000343762
0.000352343
0.000361621
0.000371689
0.000382635
0.000394537
0.000407454
0.000421429
0.000436485
0.000452625
0.000469833
0.000488083
0.000507345
0.000527578
0.000548722
0.000570702
0.000593416
0.000616733
0.000640599
0.000664983
0.000689839
0.00071512
0.000740794
0.00076682
0.000793138
0.000819715
0.00084653
0.000873563
0.000900793
0.000928185
0.000955743
0.000983497
0.00101145
0.00103961
0.00106797
0.00109655
0.00112534
0.00115436
0.0011836
0.00121307
0.00124278
0.00127272
0.00130289
0.00133331
0.00136398
0.0013949
0.00142607
0.00145748
0.00148913
0.00152102
0.00155313
0.00158547
0.00161802
0.00165078
0.00168372
0.00171685
0.00175014
0.00178358
0.00181716
0.00185086
0.00188466
0.00191855
0.00195251
0.00198652
0.00202055
0.00205459
0.00208862
0.00212261
0.00215655
0.00219041
0.00222417
0.0022578
0.00229128
0.00232458
0.00235769
0.00239057
0.00242319
0.00245552
0.00248754
0.0025192
0.00255047
0.00258133
0.00261175
0.00264171
0.00267121
0.00270026
0.00272885
0.00275697
0.0027846
0.00281171
0.00283829
0.00286432
0.00288978
0.00291465
0.00293891
0.00296254
0.00298554
0.00300787
0.00302953
0.0030505
0.00307077
0.00309032
0.00310914
0.00312722
0.00314455
0.00316111
0.0031769
0.00319191
0.00320612
0.00321954
0.00323216
0.00324397
0.00325498
0.00326518
0.00327459
0.00328341
0.00329133
0.00329815
0.00330391
0.00330922
0.00331369
0.00331733
0.00332015
0.00332215
0.00332335
0.00332375
0.00332336
0.0033222
0.00332027
0.00331759
0.00331416
0.00331
0.00330512
0.00329954
0.00329327
0.00328632
0.00327871
0.00327046
0.00326158
0.0032521
0.00324202
0.00323138
0.00322018
0.00320845
0.00319621
0.00318345
0.00317014
0.00315616
0.00314123
0.00312521
0.00310831
0.00309077
0.00307274
0.00305433
0.00303562
0.00301664
0.00299742
0.00297794
0.00295809
0.00293754
0.00291528
0.00288819
0.00284543
7.83883e-06
5.79688e-05
0.000123662
0.000179631
0.000224148
0.000258346
0.000284285
0.000303931
0.000318984
0.000330861
0.000340705
0.000349405
0.000357619
0.000365815
0.000374308
0.000383308
0.000392955
0.00040335
0.000414578
0.000426715
0.000439833
0.000453993
0.000469245
0.000485624
0.000503146
0.000521812
0.000541605
0.000562493
0.000584436
0.000607381
0.000631267
0.000656023
0.000681571
0.00070783
0.000734723
0.000762193
0.000790193
0.000818675
0.000847596
0.000876915
0.000906592
0.000936591
0.000966882
0.000997444
0.00102826
0.00105931
0.00109059
0.00112209
0.00115382
0.00118579
0.00121799
0.00125043
0.00128311
0.00131603
0.0013492
0.00138262
0.0014163
0.00145023
0.00148444
0.00151891
0.00155364
0.00158862
0.00162386
0.00165934
0.00169507
0.00173104
0.00176724
0.00180366
0.00184029
0.00187714
0.00191417
0.00195138
0.00198876
0.00202629
0.00206396
0.00210175
0.00213964
0.00217762
0.00221566
0.00225375
0.00229187
0.00233
0.0023681
0.00240618
0.00244419
0.00248212
0.00251994
0.00255763
0.00259517
0.00263253
0.00266968
0.00270661
0.00274327
0.00277964
0.0028157
0.00285141
0.00288674
0.00292167
0.00295617
0.00299023
0.00302382
0.00305693
0.00308955
0.00312167
0.00315327
0.00318432
0.00321481
0.00324472
0.00327402
0.0033027
0.00333072
0.00335809
0.00338476
0.00341074
0.00343599
0.0034605
0.00348426
0.00350725
0.00352946
0.00355087
0.00357146
0.00359124
0.00361017
0.00362826
0.00364549
0.00366186
0.00367735
0.00369196
0.00370569
0.00371853
0.00373049
0.00374166
0.00375214
0.00376148
0.0037697
0.00377693
0.00378354
0.00378922
0.00379398
0.00379784
0.00380081
0.00380289
0.0038041
0.00380444
0.00380393
0.00380256
0.00380036
0.00379734
0.00379351
0.00378888
0.00378346
0.00377727
0.00377033
0.00376264
0.00375424
0.00374512
0.00373532
0.00372486
0.00371374
0.00370199
0.00368963
0.00367668
0.00366315
0.00364902
0.00363421
0.00361858
0.00360205
0.00358472
0.00356672
0.00354819
0.00352923
0.00350991
0.0034903
0.00347042
0.00345029
0.00342982
0.00340874
0.0033861
0.00335918
0.00332023
8.17501e-06
6.70367e-05
0.00014057
0.000202325
0.000251415
0.000289313
0.000318312
0.000340556
0.000357872
0.000371775
0.00038349
0.000393973
0.000403943
0.000413922
0.000424272
0.000435239
0.000446989
0.000459637
0.000473269
0.000487948
0.000503728
0.000520648
0.000538733
0.000557994
0.000578427
0.000600015
0.000622724
0.000646512
0.000671328
0.000697111
0.000723798
0.000751321
0.000779609
0.000808597
0.000838223
0.000868433
0.000899176
0.000930408
0.000962086
0.000994172
0.00102663
0.00105944
0.00109256
0.00112599
0.00115969
0.00119367
0.00122791
0.0012624
0.00129715
0.00133216
0.00136741
0.00140291
0.00143867
0.00147468
0.00151094
0.00154746
0.00158423
0.00162127
0.00165856
0.00169612
0.00173392
0.00177198
0.00181028
0.00184882
0.00188759
0.00192659
0.00196581
0.00200525
0.00204488
0.00208471
0.00212472
0.00216489
0.00220521
0.00224568
0.00228626
0.00232696
0.00236774
0.00240859
0.0024495
0.00249043
0.00253139
0.00257233
0.00261325
0.00265411
0.0026949
0.0027356
0.00277617
0.00281661
0.00285687
0.00289695
0.0029368
0.00297641
0.00301574
0.00305478
0.00309349
0.00313185
0.00316983
0.00320741
0.00324455
0.00328125
0.00331748
0.00335322
0.00338845
0.00342316
0.00345733
0.00349092
0.00352393
0.00355633
0.00358809
0.0036192
0.00364963
0.00367937
0.00370838
0.00373666
0.00376419
0.00379094
0.00381689
0.00384204
0.00386637
0.00388986
0.00391249
0.00393426
0.00395515
0.00397515
0.00399425
0.00401244
0.0040297
0.00404604
0.00406145
0.00407591
0.00408946
0.00410228
0.00411411
0.00412489
0.00413449
0.00414318
0.00415108
0.004158
0.00416395
0.00416896
0.00417303
0.00417616
0.00417836
0.00417965
0.00418003
0.00417951
0.00417811
0.00417583
0.00417269
0.0041687
0.00416388
0.00415822
0.00415176
0.00414451
0.00413647
0.00412767
0.00411813
0.00410786
0.00409689
0.00408522
0.00407289
0.00405991
0.00404629
0.00403203
0.0040171
0.00400141
0.00398494
0.00396772
0.00394984
0.00393141
0.00391251
0.00389322
0.00387361
0.00385373
0.00383362
0.00381325
0.00379238
0.00377022
0.00374449
0.0037094
8.43936e-06
7.4683e-05
0.000154757
0.000221705
0.00027511
0.00031669
0.000348837
0.000373811
0.000393533
0.000409596
0.000423291
0.000435632
0.000447394
0.000459144
0.000471287
0.000484102
0.000497777
0.000512436
0.000528165
0.00054502
0.000563038
0.000582239
0.000602631
0.000624207
0.000646949
0.000670828
0.000695799
0.000721812
0.000748811
0.000776736
0.000805524
0.000835113
0.000865441
0.00089645
0.000928104
0.000960339
0.000993105
0.00102636
0.00106006
0.00109417
0.00112867
0.00116352
0.00119872
0.00123423
0.00127004
0.00130614
0.00134252
0.00137917
0.00141609
0.00145327
0.0014907
0.00152837
0.00156629
0.00160445
0.00164286
0.00168152
0.00172042
0.00175956
0.00179895
0.00183858
0.00187844
0.00191854
0.00195886
0.00199941
0.00204017
0.00208114
0.00212232
0.0021637
0.00220526
0.00224699
0.0022889
0.00233095
0.00237315
0.00241548
0.00245792
0.00250046
0.00254309
0.00258578
0.00262851
0.00267128
0.00271407
0.00275684
0.00279959
0.00284229
0.00288492
0.00292746
0.00296988
0.00301217
0.00305429
0.00309623
0.00313796
0.00317945
0.00322068
0.00326162
0.00330225
0.00334253
0.00338245
0.00342198
0.00346109
0.00349976
0.00353797
0.00357569
0.00361292
0.00364961
0.00368576
0.00372133
0.0037563
0.00379066
0.00382437
0.00385742
0.00388977
0.00392142
0.00395233
0.00398249
0.00401188
0.00404048
0.00406827
0.00409523
0.00412134
0.0041466
0.00417097
0.00419446
0.00421704
0.00423871
0.00425945
0.00427925
0.0042981
0.004316
0.00433293
0.00434889
0.00436395
0.00437823
0.00439138
0.00440355
0.00441452
0.00442465
0.00443383
0.00444202
0.00444922
0.00445543
0.00446068
0.00446496
0.00446829
0.00447067
0.00447211
0.00447263
0.00447223
0.00447093
0.00446873
0.00446564
0.00446169
0.00445688
0.00445123
0.00444474
0.00443744
0.00442934
0.00442045
0.0044108
0.00440039
0.00438925
0.0043774
0.00436486
0.00435164
0.00433774
0.00432316
0.00430787
0.00429184
0.00427511
0.00425772
0.00423977
0.00422133
0.00420248
0.00418329
0.00416384
0.00414419
0.00412434
0.00410413
0.00408292
0.00405886
0.00402801
8.94141e-06
7.83862e-05
0.000164231
0.000236647
0.000294587
0.000340094
0.000375589
0.000403465
0.000425743
0.000444092
0.000459862
0.000474121
0.000487688
0.000501175
0.000515024
0.000529541
0.000544936
0.000561345
0.000578854
0.000597518
0.00061736
0.000638386
0.00066059
0.000683956
0.000708463
0.00073409
0.00076077
0.000788441
0.000817047
0.000846529
0.000876827
0.000907882
0.000939634
0.000972018
0.00100501
0.00103858
0.0010727
0.00110732
0.0011424
0.00117791
0.00121382
0.00125009
0.00128667
0.00132354
0.0013607
0.00139815
0.00143589
0.00147393
0.00151225
0.0015508
0.00158959
0.0016286
0.00166784
0.0017073
0.00174698
0.00178688
0.00182701
0.00186735
0.00190791
0.00194869
0.00198969
0.00203089
0.0020723
0.00211392
0.00215573
0.00219775
0.00223995
0.00228233
0.0023249
0.00236763
0.00241053
0.00245357
0.00249676
0.00254008
0.00258352
0.00262707
0.00267071
0.00271442
0.00275821
0.00280203
0.00284589
0.00288977
0.00293363
0.00297747
0.00302127
0.00306499
0.00310863
0.00315216
0.00319555
0.00323879
0.00328184
0.00332468
0.00336728
0.00340963
0.00345169
0.00349343
0.00353484
0.00357588
0.00361653
0.00365676
0.00369654
0.00373587
0.0037747
0.00381301
0.00385078
0.00388799
0.0039246
0.0039606
0.00399596
0.00403065
0.00406465
0.00409794
0.0041305
0.0041623
0.00419332
0.00422354
0.00425294
0.00428151
0.00430922
0.00433606
0.00436201
0.00438705
0.00441118
0.00443438
0.00445663
0.00447793
0.00449827
0.00451763
0.004536
0.00455339
0.00456993
0.00458549
0.00460001
0.00461353
0.00462592
0.00463744
0.00464794
0.00465742
0.00466589
0.00467337
0.00467986
0.00468537
0.00468991
0.00469349
0.00469611
0.0046978
0.00469855
0.00469838
0.00469729
0.00469531
0.00469243
0.00468868
0.00468406
0.00467859
0.00467228
0.00466515
0.0046572
0.00464845
0.00463893
0.00462864
0.0046176
0.00460583
0.00459335
0.00458017
0.0045663
0.00455171
0.00453642
0.00452044
0.00450382
0.00448661
0.0044689
0.00445076
0.00443228
0.00441353
0.00439461
0.00437555
0.00435626
0.00433621
0.004314
0.00428737
9.49653e-06
7.97577e-05
0.000170071
0.000247589
0.000309966
0.000359468
0.000398414
0.000429302
0.00045424
0.000474961
0.000492869
0.000509076
0.000524441
0.000539613
0.000555065
0.000571132
0.000588041
0.000605939
0.000624922
0.000645055
0.000666363
0.000688817
0.000712386
0.000737024
0.000762664
0.000789288
0.00081691
0.000845487
0.00087497
0.000905302
0.000936433
0.000968309
0.00100089
0.00103412
0.00106799
0.00110242
0.00113739
0.00117284
0.00120872
0.00124501
0.00128168
0.00131871
0.00135609
0.0013938
0.00143181
0.0014701
0.00150864
0.00154735
0.00158631
0.00162548
0.00166484
0.00170438
0.00174411
0.00178402
0.00182413
0.00186442
0.0019049
0.00194558
0.00198644
0.0020275
0.00206875
0.0021102
0.00215184
0.00219367
0.00223569
0.0022779
0.0023203
0.00236289
0.00240566
0.00244862
0.00249174
0.00253504
0.0025785
0.00262211
0.00266587
0.00270977
0.00275379
0.00279793
0.00284217
0.00288649
0.00293089
0.00297534
0.00301983
0.00306434
0.00310885
0.00315333
0.00319778
0.00324216
0.00328645
0.00333062
0.00337466
0.00341853
0.00346221
0.00350567
0.00354888
0.00359182
0.00363446
0.00367676
0.00371871
0.00376027
0.00380141
0.00384211
0.00388235
0.00392208
0.00396129
0.00399995
0.00403804
0.00407551
0.00411236
0.00414855
0.00418405
0.00421885
0.00425291
0.00428622
0.00431875
0.00435049
0.0043814
0.00441147
0.00444068
0.00446902
0.00449646
0.00452299
0.00454859
0.00457326
0.00459697
0.00461972
0.00464149
0.00466227
0.00468206
0.00470088
0.00471878
0.00473565
0.00475155
0.00476643
0.00478027
0.00479318
0.00480502
0.00481582
0.00482561
0.00483439
0.00484219
0.004849
0.00485483
0.00485969
0.0048636
0.00486655
0.00486857
0.00486965
0.00486982
0.00486908
0.00486744
0.00486491
0.00486151
0.00485724
0.00485212
0.00484615
0.00483936
0.00483175
0.00482334
0.00481414
0.00480417
0.00479344
0.00478197
0.00476977
0.00475686
0.00474323
0.0047289
0.00471389
0.00469823
0.00468198
0.00466521
0.00464798
0.0046304
0.00461255
0.00459454
0.00457643
0.00455819
0.0045394
0.00451899
0.00449579
9.98418e-06
7.99384e-05
0.00017337
0.000255201
0.000321616
0.000374945
0.000417292
0.000451199
0.000478822
0.000501943
0.000522005
0.000540154
0.000557281
0.000574062
0.000591001
0.000608472
0.000626712
0.000645843
0.000665924
0.00068695
0.000709005
0.00073215
0.000756385
0.000781691
0.000808061
0.000835482
0.000863894
0.000893209
0.000923369
0.000954322
0.000986017
0.00101841
0.00105145
0.0010851
0.00111931
0.00115404
0.00118922
0.00122483
0.00126085
0.00129724
0.00133398
0.00137104
0.0014084
0.00144603
0.0014839
0.00152201
0.00156037
0.00159903
0.00163794
0.00167699
0.00171613
0.00175538
0.00179476
0.00183427
0.00187393
0.00191375
0.00195373
0.00199388
0.00203419
0.00207469
0.00211537
0.00215623
0.0021973
0.00223856
0.00228002
0.00232169
0.00236358
0.00240568
0.00244799
0.00249053
0.00253327
0.00257624
0.00261941
0.00266279
0.00270638
0.00275016
0.00279412
0.00283826
0.00288257
0.00292702
0.00297162
0.00301633
0.00306115
0.00310606
0.00315102
0.00319603
0.00324107
0.00328609
0.00333109
0.00337604
0.0034209
0.00346565
0.00351026
0.00355471
0.00359895
0.00364297
0.00368673
0.00373019
0.00377334
0.00381613
0.00385854
0.00390054
0.0039421
0.00398317
0.00402375
0.00406379
0.00410328
0.00414217
0.00418044
0.00421807
0.00425502
0.00429127
0.0043268
0.00436157
0.00439557
0.00442877
0.00446116
0.0044927
0.00452338
0.00455319
0.00458209
0.00461008
0.00463714
0.00466326
0.00468841
0.0047126
0.0047358
0.00475801
0.00477922
0.00479944
0.00481869
0.00483693
0.00485423
0.00487051
0.00488579
0.00490015
0.00491337
0.00492552
0.00493668
0.00494683
0.00495599
0.00496416
0.00497136
0.00497759
0.00498286
0.00498718
0.00499056
0.00499301
0.00499455
0.00499517
0.0049949
0.00499374
0.0049917
0.00498879
0.00498502
0.0049804
0.00497494
0.00496866
0.00496156
0.00495365
0.00494495
0.00493547
0.00492522
0.00491423
0.0049025
0.00489004
0.00487688
0.00486302
0.0048485
0.00483337
0.0048177
0.00480155
0.00478503
0.00476823
0.00475126
0.00473422
0.00471709
0.0046996
0.00468088
0.00466053
1.04005e-05
7.92647e-05
0.000174637
0.000259931
0.00032987
0.000386705
0.000432279
0.000469108
0.000499362
0.000524841
0.000547012
0.000567056
0.000585892
0.000604167
0.000622356
0.000640757
0.00065971
0.000679462
0.000700157
0.000721912
0.000744792
0.000768729
0.000793688
0.000819643
0.000846561
0.00087438
0.00090302
0.000932459