/*--------------------------------*- C++ -*----------------------------------*\
| =========                 |                                                 |
| \\      /  F ield         | OpenFOAM: The Open Source CFD Toolbox           |
|  \\    /   O peration     | Version:  2406                                  |
|   \\  /    A nd           | Website:  www.openfoam.com                      |
|    \\/     M anipulation  |                                                 |
\*---------------------------------------------------------------------------*/
FoamFile
{
    version     2.0;
    format      ascii;
    arch        "LSB;label=32;scalar=64";
    class       volScalarField;
    location    "281";
    object      p;
}
// * * * * * * * * * * * * * * * * * * * * * * * * * * * * * * * * * * * * * //

dimensions      [0 2 -2 0 0 0 0];

internalField   nonuniform List<scalar> 
12225
(
-1.74052
-3.90517
-4.99763
-5.31128
-5.48804
-5.66677
-5.81486
-5.92649
-6.01811
-6.10107
-6.17843
-6.25124
-6.32121
-6.39031
-6.46105
-6.53285
-6.62034
-6.6735
-4.8864
-5.66664
-5.87115
-5.78297
-5.75784
-5.82206
-5.9051
-5.97937
-6.04883
-6.11806
-6.18664
-6.25367
-6.31968
-6.38587
-6.45393
-6.52512
-6.60424
-6.70725
-5.26516
-5.19326
-5.31223
-5.39905
-5.50732
-5.64974
-5.78449
-5.8949
-5.98887
-6.07448
-6.15421
-6.22891
-6.30014
-6.36967
-6.43949
-6.51085
-6.58854
-6.67147
-5.13161
-5.04396
-5.30305
-5.49505
-5.61749
-5.7387
-5.85227
-5.94662
-6.02774
-6.10291
-6.17444
-6.24275
-6.30884
-6.37397
-6.43948
-6.50611
-6.57502
-6.64096
-5.12017
-5.13672
-5.38393
-5.549
-5.64196
-5.74042
-5.84267
-5.9331
-6.01316
-6.08822
-6.16009
-6.22889
-6.2953
-6.36027
-6.42471
-6.48883
-6.55223
-6.61122
-5.18069
-5.22778
-5.41462
-5.55478
-5.64503
-5.74119
-5.84177
-5.9322
-6.0125
-6.08735
-6.15863
-6.22662
-6.29189
-6.35525
-6.41727
-6.47786
-6.5362
-6.58949
-5.24376
-5.28737
-5.43172
-5.56225
-5.65644
-5.75027
-5.84634
-5.93403
-6.01263
-6.08589
-6.15561
-6.2221
-6.2858
-6.34725
-6.40677
-6.46404
-6.51815
-6.5668
-5.29987
-5.33781
-5.45558
-5.5766
-5.67024
-5.75945
-5.85
-5.93449
-6.01129
-6.08302
-6.15127
-6.21635
-6.27851
-6.33811
-6.39525
-6.44953
-6.50011
-6.54523
-5.35208
-5.38629
-5.48405
-5.59304
-5.68323
-5.76791
-5.85344
-5.93474
-6.00962
-6.07972
-6.14637
-6.20986
-6.27034
-6.32799
-6.38278
-6.43431
-6.48188
-6.52424
-5.40146
-5.43221
-5.51374
-5.61047
-5.69613
-5.77666
-5.85749
-5.93534
-6.00795
-6.07616
-6.14099
-6.20272
-6.26137
-6.317
-6.36951
-6.41856
-6.4636
-6.50375
-5.44783
-5.47501
-5.54354
-5.62899
-5.70942
-5.78581
-5.86208
-5.93629
-6.00634
-6.07244
-6.1353
-6.19511
-6.25183
-6.30543
-6.35578
-6.40258
-6.44548
-6.48382
-5.48746
-5.51152
-5.57053
-5.6467
-5.72188
-5.79435
-5.86661
-5.93742
-6.00494
-6.06896
-6.12989
-6.18785
-6.24276
-6.29451
-6.34299
-6.38794
-6.42913
-6.46609
-5.52386
-5.54525
-5.59644
-5.66436
-5.73424
-5.8028
-5.87123
-5.93869
-6.00361
-6.06548
-6.12444
-6.18052
-6.23361
-6.28358
-6.3303
-6.37358
-6.41327
-6.44906
-5.56168
-5.58045
-5.62437
-5.68414
-5.74811
-5.81221
-5.87648
-5.94022
-6.00211
-6.06145
-6.11811
-6.17204
-6.22309
-6.2711
-6.31596
-6.35753
-6.39573
-6.43038
-5.59942
-5.61565
-5.65307
-5.70519
-5.76294
-5.82215
-5.88201
-5.94177
-6.00028
-6.05675
-6.11083
-6.16237
-6.21119
-6.25713
-6.30008
-6.33995
-6.37672
-6.41029
-5.63478
-5.64869
-5.68058
-5.72587
-5.77755
-5.83174
-5.88711
-5.9428
-5.99775
-6.05112
-6.10245
-6.15148
-6.19799
-6.24184
-6.28291
-6.32115
-6.35658
-6.38915
-5.66438
-5.67636
-5.70385
-5.7435
-5.78979
-5.83928
-5.89045
-5.94228
-5.99377
-6.04409
-6.0927
-6.13927
-6.18356
-6.22542
-6.26475
-6.30152
-6.33575
-6.36745
-5.68323
-5.69383
-5.71826
-5.75391
-5.79619
-5.84201
-5.88981
-5.9385
-5.98713
-6.03487
-6.08116
-6.12562
-6.16803
-6.20823
-6.24612
-6.28169
-6.31494
-6.34593
-5.6836
-5.69357
-5.71667
-5.75064
-5.79119
-5.83532
-5.88143
-5.92849
-5.97557
-6.02187
-6.0668
-6.11001
-6.15128
-6.19047
-6.2275
-6.26237
-6.29511
-6.32577
-5.6594
-5.6699
-5.69421
-5.72997
-5.77239
-5.81797
-5.86512
-5.91299
-5.96073
-6.00751
-6.05275
-6.09614
-6.1375
-6.17672
-6.21374
-6.24859
-6.2813
-6.31197
-5.62515
-5.63654
-5.66334
-5.70298
-5.74927
-5.79785
-5.84743
-5.89749
-5.94709
-5.99529
-6.04161
-6.08586
-6.12791
-6.16768
-6.20517
-6.24041
-6.27347
-6.3045
-5.58284
-5.59495
-5.62554
-5.67183
-5.7238
-5.77597
-5.82859
-5.88181
-5.93421
-5.98456
-6.03249
-6.07801
-6.12104
-6.16156
-6.19959
-6.23523
-6.2686
-6.29983
-5.53587
-5.5473
-5.58241
-5.63877
-5.69843
-5.75464
-5.81057
-5.86715
-5.9224
-5.975
-6.02484
-6.07198
-6.11636
-6.15794
-6.19683
-6.23319
-6.26719
-6.29905
-5.48676
-5.49589
-5.53735
-5.60512
-5.67158
-5.73277
-5.79434
-5.85555
-5.91357
-5.9679
-6.01911
-6.06736
-6.11253
-6.15465
-6.19391
-6.23053
-6.26468
-6.29649
-5.43544
-5.43696
-5.50002
-5.58195
-5.64577
-5.70668
-5.77448
-5.8424
-5.90506
-5.96279
-6.01685
-6.0674
-6.11426
-6.15755
-6.19762
-6.23481
-6.26941
-6.30195
-5.38891
-5.34099
-5.45701
-5.57876
-5.64158
-5.69449
-5.75941
-5.82641
-5.88842
-5.9462
-6.001
-6.0526
-6.10054
-6.14493
-6.18605
-6.22424
-6.25971
-6.29262
-5.40636
-5.20876
-5.34212
-5.52041
-5.62592
-5.70677
-5.78651
-5.8591
-5.92243
-5.97988
-6.03339
-6.08298
-6.12848
-6.17028
-6.20881
-6.24452
-6.27791
-6.31001
-5.54915
-5.30046
-5.27696
-5.33225
-5.41532
-5.52399
-5.63545
-5.73334
-5.81829
-5.89486
-5.96468
-6.02764
-6.08397
-6.13453
-6.18012
-6.22139
-6.25914
-6.2947
-5.27812
-5.90657
-6.02522
-5.88531
-5.79771
-5.80512
-5.8474
-5.8924
-5.93808
-5.98638
-6.03547
-6.08293
-6.12741
-6.16886
-6.20731
-6.24265
-6.27523
-6.30642
-2.21915
-3.98825
-5.00158
-5.28314
-5.40967
-5.55246
-5.68245
-5.78322
-5.86555
-5.93883
-6.00513
-6.06433
-6.117
-6.16406
-6.20621
-6.24366
-6.27653
-6.30328
-7.0881
-7.08784
-7.08781
-7.08822
-7.08905
-7.09022
-7.09163
-7.09318
-7.09481
-7.09649
-7.09824
-7.10008
-7.10203
-7.1041
-7.10632
-7.10873
-7.11136
-7.11424
-7.1174
-7.12088
-7.12474
-7.12899
-7.13368
-7.13886
-7.14459
-7.15092
-7.15792
-7.16567
-7.17425
-7.18374
-7.19422
-7.20577
-7.21844
-7.23229
-7.24735
-7.26365
-7.28119
-7.29994
-7.3199
-7.34101
-7.36322
-7.38648
-7.4107
-7.43582
-7.4618
-7.48858
-7.51609
-7.54416
-7.57266
-7.60152
-7.63068
-7.66007
-7.68964
-7.71931
-7.74901
-7.77868
-7.80824
-7.8376
-7.86669
-7.89541
-7.92367
-7.95137
-7.9784
-8.00465
-8.02999
-8.05431
-8.07746
-8.0993
-8.11969
-8.13847
-8.15548
-8.17055
-8.1835
-8.19416
-8.20233
-8.20784
-8.21047
-8.21004
-8.20635
-8.19917
-8.18832
-8.17358
-8.15473
-8.13158
-8.10392
-8.07154
-8.03423
-7.99179
-7.94404
-7.89077
-7.83181
-7.76698
-7.69611
-7.61904
-7.53562
-7.4457
-7.34915
-7.24584
-7.13575
-7.01897
-6.89554
-6.76512
-6.62721
-6.48183
-6.32915
-6.16923
-6.00209
-5.82776
-5.64628
-5.4577
-5.2621
-5.05955
-4.85017
-4.63407
-4.41139
-4.18228
-3.94691
-3.70546
-3.45814
-3.20515
-2.94674
-2.68314
-2.41461
-2.14141
-1.86382
-1.58214
-1.29666
-1.0077
-0.715584
-0.420637
-0.123191
0.176426
0.477893
0.780863
1.08496
1.3898
1.69507
2.00044
2.30555
2.61005
2.9136
3.21588
3.51655
3.8153
4.11182
4.40582
4.69702
4.98513
5.26989
5.55107
5.82842
6.10172
6.37077
6.63538
6.89538
7.15059
7.40088
7.64611
7.88616
8.12094
8.35035
8.57433
8.7928
9.00574
9.21313
9.4151
9.61152
9.80206
9.9867
10.1655
10.3385
10.5057
10.6672
10.8231
10.9736
11.119
11.2603
11.3988
11.5445
11.6939
-7.08856
-7.08834
-7.08833
-7.08881
-7.08969
-7.09077
-7.09192
-7.09311
-7.09432
-7.09554
-7.09679
-7.0981
-7.09953
-7.1011
-7.10284
-7.10478
-7.10693
-7.10933
-7.112
-7.11496
-7.11822
-7.12183
-7.12585
-7.13036
-7.13542
-7.14109
-7.14747
-7.15463
-7.16268
-7.17168
-7.18172
-7.19288
-7.20522
-7.21879
-7.23363
-7.24974
-7.26713
-7.28575
-7.30558
-7.32657
-7.34865
-7.37176
-7.39581
-7.42074
-7.44647
-7.47293
-7.50005
-7.5277
-7.55581
-7.58429
-7.61308
-7.64212
-7.67134
-7.70067
-7.73005
-7.75941
-7.78868
-7.81777
-7.8466
-7.8751
-7.90316
-7.93068
-7.95757
-7.9837
-8.00897
-8.03323
-8.05637
-8.07824
-8.09869
-8.11758
-8.13473
-8.14998
-8.16317
-8.1741
-8.1826
-8.18847
-8.19153
-8.19156
-8.18838
-8.18178
-8.17154
-8.15747
-8.13935
-8.11698
-8.09014
-8.05864
-8.02227
-7.98083
-7.93412
-7.88197
-7.82417
-7.76057
-7.69099
-7.61528
-7.53328
-7.44486
-7.34988
-7.24821
-7.13972
-7.02426
-6.90162
-6.77176
-6.63489
-6.49099
-6.33993
-6.18169
-6.01626
-5.84365
-5.66391
-5.47707
-5.28321
-5.0824
-4.87476
-4.66038
-4.43941
-4.212
-3.9783
-3.7385
-3.4928
-3.2414
-2.98454
-2.72246
-2.45539
-2.18362
-1.9074
-1.62704
-1.34284
-1.05509
-0.764116
-0.470252
-0.173827
0.124835
0.425417
0.727581
1.03094
1.33513
1.63982
1.94468
2.24937
2.55353
2.85683
3.15892
3.4595
3.75823
4.05482
4.34896
4.64037
4.92876
5.21389
5.4955
5.77335
6.04721
6.31689
6.58219
6.84293
7.09894
7.35007
7.59619
7.83719
8.07295
8.30338
8.52842
8.74803
8.96218
9.17078
9.37346
9.57009
9.7609
9.94589
10.1251
10.2985
10.4662
10.6283
10.7849
10.9362
11.0826
11.2256
11.3658
11.5149
11.6602
-7.0875
-7.08754
-7.08783
-7.0885
-7.08941
-7.09035
-7.09122
-7.09202
-7.09276
-7.09348
-7.09422
-7.09502
-7.09591
-7.09693
-7.09809
-7.09942
-7.10095
-7.10269
-7.10471
-7.10704
-7.10974
-7.11288
-7.11653
-7.12076
-7.12566
-7.13129
-7.13775
-7.14512
-7.15345
-7.1628
-7.17324
-7.1848
-7.19753
-7.21145
-7.22655
-7.24284
-7.26028
-7.27885
-7.2985
-7.3192
-7.34088
-7.3635
-7.38698
-7.41128
-7.43632
-7.46204
-7.48836
-7.51522
-7.54254
-7.57025
-7.59829
-7.62661
-7.65512
-7.68378
-7.71252
-7.74126
-7.76993
-7.79847
-7.82678
-7.85478
-7.88238
-7.90948
-7.93598
-7.96177
-7.98672
-8.01072
-8.03363
-8.05532
-8.07564
-8.09444
-8.11155
-8.12682
-8.14007
-8.15112
-8.15979
-8.1659
-8.16925
-8.16964
-8.16687
-8.16075
-8.15105
-8.13759
-8.12015
-8.09852
-8.0725
-8.04188
-8.00646
-7.96603
-7.92042
-7.86941
-7.81284
-7.75052
-7.68229
-7.60798
-7.52744
-7.44053
-7.34712
-7.24709
-7.14033
-7.02669
-6.90597
-6.77809
-6.64314
-6.50115
-6.35205
-6.1958
-6.03241
-5.86186
-5.6842
-5.49947
-5.30772
-5.10904
-4.90352
-4.69128
-4.47244
-4.24714
-4.01555
-3.77784
-3.53421
-3.28486
-3.03002
-2.76991
-2.50479
-2.23492
-1.96056
-1.68201
-1.39955
-1.1135
-0.824165
-0.531874
-0.236958
0.060262
0.359473
0.660334
0.962471
1.26552
1.56916
1.87305
2.17685
2.4802
2.78278
3.08425
3.38428
3.68256
3.97877
4.27263
4.56383
4.8521
5.13718
5.41882
5.69677
5.97082
6.24074
6.50634
6.76744
7.02387
7.27548
7.52213
7.76369
8.00005
8.23111
8.45679
8.67698
8.89163
9.10075
9.30424
9.50208
9.69423
9.88058
10.0611
10.2359
10.405
10.5685
10.7266
10.8795
11.0278
11.1732
11.3154
11.4675
11.6023
-7.08434
-7.08482
-7.08567
-7.0867
-7.08773
-7.08864
-7.08941
-7.09005
-7.09059
-7.09109
-7.09157
-7.0921
-7.09271
-7.09344
-7.09433
-7.09541
-7.09671
-7.09828
-7.10016
-7.10241
-7.10509
-7.10829
-7.11206
-7.11649
-7.12164
-7.1276
-7.13442
-7.14217
-7.1509
-7.16066
-7.17148
-7.1834
-7.19642
-7.21054
-7.22576
-7.24206
-7.25942
-7.27781
-7.2972
-7.31755
-7.33881
-7.36094
-7.38387
-7.40757
-7.43197
-7.45702
-7.48265
-7.50882
-7.53545
-7.5625
-7.5899
-7.61759
-7.64551
-7.6736
-7.7018
-7.73004
-7.75825
-7.78634
-7.81425
-7.84188
-7.86915
-7.89595
-7.92219
-7.94775
-7.97252
-7.99638
-8.01918
-8.0408
-8.06109
-8.0799
-8.09707
-8.11244
-8.12583
-8.13707
-8.14597
-8.15236
-8.15603
-8.15679
-8.15444
-8.14877
-8.13959
-8.12669
-8.10986
-8.08888
-8.06357
-8.0337
-7.99908
-7.95951
-7.91479
-7.86472
-7.80914
-7.74785
-7.68069
-7.60749
-7.5281
-7.44236
-7.35014
-7.25131
-7.14576
-7.03337
-6.91401
-6.7876
-6.65416
-6.51367
-6.36609
-6.21139
-6.04955
-5.88059
-5.70453
-5.5214
-5.33128
-5.13422
-4.93033
-4.71972
-4.5025
-4.27882
-4.04884
-3.81273
-3.57067
-3.32288
-3.06958
-2.81098
-2.54734
-2.27892
-2.00598
-1.7288
-1.44768
-1.16292
-0.874834
-0.583743
-0.289978
0.00614613
0.304317
0.604181
0.905369
1.20755
1.51038
1.81354
2.11665
2.41938
2.72141
3.02239
3.322
3.61992
3.91585
4.20947
4.50051
4.78868
5.07372
5.35537
5.6334
5.90757
6.17767
6.4435
6.70487
6.96162
7.21359
7.46062
7.7026
7.9394
8.17095
8.39715
8.6179
8.83315
9.04285
9.24703
9.44569
9.63871
9.82599
10.0075
10.1832
10.3533
10.5178
10.6769
10.831
10.9804
11.1269
11.2693
11.4204
11.5423
-7.07909
-7.08015
-7.08183
-7.0835
-7.08487
-7.08596
-7.0868
-7.08746
-7.08798
-7.08842
-7.08885
-7.08931
-7.08987
-7.09056
-7.09144
-7.09254
-7.09391
-7.0956
-7.09767
-7.10017
-7.10317
-7.10673
-7.11094
-7.11585
-7.12152
-7.12802
-7.1354
-7.1437
-7.15296
-7.1632
-7.17446
-7.18674
-7.20004
-7.21438
-7.22973
-7.24608
-7.26341
-7.28168
-7.30088
-7.32096
-7.34189
-7.36362
-7.38611
-7.40932
-7.43321
-7.45772
-7.48281
-7.50842
-7.53451
-7.56102
-7.5879
-7.6151
-7.64254
-7.67019
-7.69796
-7.7258
-7.75364
-7.7814
-7.809
-7.83635
-7.86338
-7.88997
-7.91602
-7.94144
-7.96609
-7.98985
-8.01261
-8.03421
-8.05451
-8.07337
-8.09061
-8.10609
-8.11962
-8.13104
-8.14015
-8.14678
-8.15072
-8.15179
-8.14978
-8.14449
-8.13572
-8.12325
-8.10689
-8.08642
-8.06164
-8.03234
-7.99831
-7.95937
-7.9153
-7.86593
-7.81106
-7.75052
-7.68412
-7.61172
-7.53314
-7.44824
-7.35689
-7.25894
-7.15429
-7.04282
-6.92444
-6.79907
-6.66669
-6.52725
-6.38073
-6.2271
-6.06634
-5.89847
-5.7235
-5.54148
-5.35246
-5.15652
-4.95374
-4.74423
-4.52812
-4.30554
-4.07665
-3.84162
-3.60064
-3.35391
-3.10164
-2.84407
-2.58143
-2.31398
-2.04199
-1.76574
-1.48552
-1.20163
-0.914374
-0.624087
-0.33109
-0.0356859
0.261799
0.560998
0.861558
1.16317
1.46549
1.76817
2.07085
2.3732
2.67488
2.97557
3.27494
3.57266
3.86843
4.16195
4.45293
4.74108
5.02615
5.30787
5.58601
5.86033
6.13062
6.39668
6.65831
6.91534
7.16763
7.41502
7.65739
7.89462
8.12661
8.35326
8.57449
8.79023
9.00041
9.20503
9.4041
9.59754
9.78526
9.96724
10.1435
10.3141
10.4791
10.6388
10.7934
10.9432
11.0897
11.2309
11.3792
11.4889
-7.07235
-7.07406
-7.07676
-7.07923
-7.08111
-7.08253
-7.0836
-7.08443
-7.08508
-7.08564
-7.08618
-7.08676
-7.08745
-7.0883
-7.08937
-7.09071
-7.09237
-7.0944
-7.09686
-7.0998
-7.1033
-7.10742
-7.1122
-7.11772
-7.12401
-7.13113
-7.13912
-7.148
-7.1578
-7.16854
-7.18024
-7.19289
-7.20649
-7.22104
-7.23653
-7.25294
-7.27024
-7.28842
-7.30746
-7.32732
-7.34797
-7.36938
-7.39152
-7.41434
-7.43782
-7.46191
-7.48657
-7.51175
-7.53741
-7.56351
-7.58998
-7.61678
-7.64386
-7.67115
-7.6986
-7.72615
-7.75371
-7.78123
-7.80861
-7.83578
-7.86264
-7.88911
-7.91506
-7.9404
-7.96501
-7.98876
-8.01152
-8.03316
-8.05353
-8.07247
-8.08983
-8.10545
-8.11915
-8.13075
-8.14007
-8.14693
-8.15113
-8.15247
-8.15076
-8.14579
-8.13735
-8.12524
-8.10926
-8.08918
-8.06481
-8.03594
-8.00237
-7.96389
-7.92031
-7.87143
-7.81708
-7.75707
-7.69122
-7.61937
-7.54137
-7.45707
-7.36631
-7.26899
-7.16498
-7.05417
-6.93647
-6.81181
-6.68014
-6.54143
-6.39563
-6.24272
-6.0827
-5.91556
-5.74134
-5.56006
-5.37179
-5.1766
-4.97457
-4.76581
-4.55045
-4.32861
-4.10047
-3.86617
-3.62592
-3.37991
-3.12836
-2.87148
-2.60953
-2.34275
-2.07142
-1.79581
-1.51621
-1.23292
-0.946247
-0.656522
-0.364056
-0.0691545
0.227841
0.526564
0.826684
1.1279
1.42986
1.7322
2.03457
2.33665
2.6381
2.93858
3.23778
3.53536
3.83103
4.12448
4.41542
4.70357
4.98867
5.27045
5.54867
5.82311
6.09354
6.35977
6.6216
6.87887
7.13141
7.37909
7.62176
7.8593
8.09162
8.3186
8.54018
8.75626
8.96677
9.1717
9.37102
9.56472
9.75271
9.93499
10.1116
10.2825
10.4478
10.6077
10.7625
10.9122
11.0582
11.1976
11.343
11.4419
-7.06511
-7.06744
-7.07121
-7.07454
-7.077
-7.07884
-7.08027
-7.08139
-7.0823
-7.08311
-7.0839
-7.08475
-7.08572
-7.08689
-7.08831
-7.09004
-7.09213
-7.09464
-7.09763
-7.10114
-7.10523
-7.10995
-7.11537
-7.12151
-7.12843
-7.13615
-7.14471
-7.15413
-7.16442
-7.1756
-7.18767
-7.20064
-7.21449
-7.22923
-7.24484
-7.2613
-7.2786
-7.29672
-7.31565
-7.33535
-7.35581
-7.37699
-7.39886
-7.42141
-7.44459
-7.46836
-7.4927
-7.51757
-7.54292
-7.5687
-7.59488
-7.6214
-7.64822
-7.67527
-7.7025
-7.72985
-7.75725
-7.78461
-7.81188
-7.83895
-7.86575
-7.89217
-7.9181
-7.94345
-7.96809
-7.99189
-8.01473
-8.03646
-8.05694
-8.07602
-8.09353
-8.10932
-8.1232
-8.135
-8.14453
-8.15161
-8.15605
-8.15764
-8.15618
-8.15148
-8.14332
-8.1315
-8.1158
-8.09603
-8.07197
-8.04341
-8.01016
-7.972
-7.92876
-7.88022
-7.82622
-7.76656
-7.70107
-7.62959
-7.55196
-7.46803
-7.37767
-7.28074
-7.17714
-7.06675
-6.94949
-6.82528
-6.69408
-6.55582
-6.41048
-6.25803
-6.09847
-5.93179
-5.75804
-5.57724
-5.38944
-5.19473
-4.99318
-4.78491
-4.57003
-4.34868
-4.12102
-3.88721
-3.64745
-3.40192
-3.15084
-2.89443
-2.63295
-2.36663
-2.09575
-1.82058
-1.54141
-1.25854
-0.972285
-0.682958
-0.390869
-0.096334
0.200294
0.498664
0.798461
1.09938
1.40107
1.70315
2.00529
2.30716
2.60842
2.90873
3.20778
3.50525
3.80082
4.0942
4.38509
4.67322
4.95831
5.24011
5.51838
5.79288
6.0634
6.32974
6.59172
6.84914
7.10186
7.34972
7.59259
7.83035
8.06289
8.2901
8.51191
8.72823
8.93898
9.14413
9.34366
9.53754
9.72574
9.90823
10.085
10.2561
10.4216
10.5816
10.7363
10.8857
11.0309
11.1681
11.3109
11.4003
-7.05834
-7.06122
-7.06596
-7.07011
-7.07316
-7.07548
-7.07731
-7.0788
-7.08005
-7.0812
-7.08232
-7.08353
-7.08488
-7.08646
-7.08832
-7.09051
-7.09311
-7.09615
-7.0997
-7.10379
-7.10848
-7.11381
-7.11982
-7.12655
-7.13404
-7.1423
-7.15137
-7.16125
-7.17197
-7.18352
-7.19591
-7.20914
-7.2232
-7.2381
-7.25381
-7.27033
-7.28765
-7.30575
-7.32461
-7.34421
-7.36453
-7.38556
-7.40726
-7.42961
-7.45259
-7.47616
-7.50029
-7.52495
-7.55009
-7.57568
-7.60168
-7.62803
-7.6547
-7.68161
-7.70873
-7.73599
-7.76331
-7.79063
-7.81787
-7.84494
-7.87175
-7.89821
-7.92421
-7.94963
-7.97436
-7.99828
-8.02125
-8.04312
-8.06376
-8.08301
-8.1007
-8.11667
-8.13074
-8.14274
-8.15248
-8.15977
-8.16442
-8.16622
-8.16498
-8.16049
-8.15254
-8.14093
-8.12545
-8.10588
-8.08203
-8.05368
-8.02063
-7.98268
-7.93963
-7.8913
-7.83749
-7.77803
-7.71274
-7.64146
-7.56403
-7.4803
-7.39015
-7.29343
-7.19004
-7.07988
-6.96285
-6.83888
-6.70791
-6.56989
-6.4248
-6.27259
-6.11328
-5.94686
-5.77336
-5.59282
-5.40529
-5.21085
-5.00958
-4.80158
-4.58699
-4.36593
-4.13856
-3.90505
-3.66558
-3.42035
-3.16957
-2.91347
-2.65229
-2.38627
-2.11569
-1.84082
-1.56194
-1.27936
-0.993393
-0.704344
-0.412522
-0.11826
0.178091
0.476199
0.775755
1.07645
1.37792
1.67981
1.98176
2.28346
2.58455
2.88473
3.18365
3.481
3.77648
4.06977
4.3606
4.64868
4.93374
5.21553
5.49381
5.76834
6.03891
6.30531
6.56735
6.82487
7.07769
7.32567
7.56867
7.80657
8.03925
8.26662
8.48859
8.70507
8.91599
9.12129
9.32098
9.51501
9.70335
9.88598
10.0629
10.2341
10.3997
10.5596
10.7141
10.8629
11.007
11.1421
11.2825
11.3635
-7.05289
-7.05617
-7.06166
-7.06653
-7.07014
-7.07292
-7.07516
-7.07703
-7.07865
-7.08016
-7.08167
-7.08327
-7.08503
-7.08704
-7.08935
-7.09203
-7.09512
-7.09868
-7.10276
-7.10739
-7.11262
-7.11849
-7.12503
-7.13227
-7.14024
-7.14896
-7.15845
-7.16872
-7.17979
-7.19164
-7.2043
-7.21775
-7.23199
-7.24703
-7.26284
-7.27943
-7.29678
-7.31487
-7.33371
-7.35326
-7.37351
-7.39446
-7.41606
-7.43831
-7.46117
-7.48463
-7.50864
-7.53319
-7.55823
-7.58373
-7.60965
-7.63593
-7.66254
-7.68943
-7.71653
-7.74379
-7.77113
-7.79849
-7.82578
-7.85293
-7.87984
-7.90641
-7.93253
-7.95809
-7.98298
-8.00705
-8.03019
-8.05225
-8.07307
-8.0925
-8.11038
-8.12654
-8.1408
-8.15299
-8.16292
-8.17039
-8.17521
-8.17718
-8.17609
-8.17176
-8.16395
-8.15248
-8.13712
-8.11767
-8.09393
-8.06568
-8.03272
-7.99485
-7.95188
-7.90362
-7.84987
-7.79047
-7.72523
-7.654
-7.57662
-7.49294
-7.40283
-7.30617
-7.20283
-7.09272
-6.97576
-6.85185
-6.72095
-6.58301
-6.43799
-6.28586
-6.12663
-5.9603
-5.78689
-5.60645
-5.41903
-5.2247
-5.02355
-4.81568
-4.60122
-4.3803
-4.15308
-3.91973
-3.68043
-3.43537
-3.18476
-2.92885
-2.66785
-2.40202
-2.13163
-1.85696
-1.57829
-1.29591
-1.01014
-0.721287
-0.429665
-0.135616
0.160523
0.458429
0.757795
1.05831
1.35961
1.66132
1.96312
2.26465
2.5656
2.86564
3.16443
3.46167
3.75704
4.05024
4.34099
4.629
4.91402
5.19577
5.47402
5.74853
6.0191
6.28552
6.54759
6.80514
7.05801
7.30605
7.54912
7.78709
8.01987
8.24733
8.4694
8.68598
8.897
9.10243
9.30221
9.49634
9.68476
9.86747
10.0444
10.2157
10.3812
10.541
10.6951
10.8432
10.9861
11.1191
11.2572
11.3311
-7.0493
-7.05284
-7.05876
-7.06416
-7.06825
-7.07144
-7.07406
-7.07628
-7.07827
-7.08014
-7.08202
-7.08399
-7.08616
-7.08857
-7.09131
-7.09442
-7.09796
-7.10198
-7.10651
-7.1116
-7.11729
-7.12361
-7.13058
-7.13824
-7.1466
-7.15569
-7.16552
-7.1761
-7.18743
-7.19953
-7.21239
-7.22602
-7.24041
-7.25556
-7.27146
-7.28811
-7.3055
-7.32362
-7.34246
-7.36201
-7.38224
-7.40316
-7.42473
-7.44695
-7.46978
-7.49321
-7.51721
-7.54174
-7.56677
-7.59227
-7.61819
-7.6445
-7.67115
-7.69809
-7.72526
-7.7526
-7.78005
-7.80752
-7.83494
-7.86223
-7.88929
-7.91603
-7.94232
-7.96807
-7.99314
-8.01741
-8.04074
-8.06298
-8.08399
-8.10361
-8.12167
-8.138
-8.15243
-8.16477
-8.17484
-8.18244
-8.18738
-8.18946
-8.18847
-8.1842
-8.17646
-8.16503
-8.14971
-8.13028
-8.10654
-8.07828
-8.0453
-8.0074
-7.96438
-7.91606
-7.86225
-7.80278
-7.73747
-7.66615
-7.58869
-7.50492
-7.41473
-7.31798
-7.21456
-7.10438
-6.98733
-6.86336
-6.7324
-6.59439
-6.44931
-6.29714
-6.13786
-5.9715
-5.79806
-5.6176
-5.43017
-5.23584
-5.0347
-4.82685
-4.61243
-4.39156
-4.16439
-3.93111
-3.69188
-3.44691
-3.1964
-2.94059
-2.67971
-2.41401
-2.14375
-1.86922
-1.59069
-1.30847
-1.02285
-0.734151
-0.442699
-0.14883
0.147132
0.444863
0.744059
1.04441
1.34554
1.64708
1.94871
2.25008
2.55088
2.85077
3.14942
3.44653
3.74178
4.03487
4.32552
4.61344
4.89836
5.18004
5.45823
5.73269
6.00322
6.2696
6.53165
6.78919
7.04206
7.29011
7.53319
7.7712
8.004
8.23151
8.45363
8.67026
8.88135
9.08684
9.28669
9.48086
9.66933
9.85206
10.029
10.2002
10.3656
10.5251
10.6787
10.8261
10.9677
11.0987
11.2348
11.3024
-7.04779
-7.05141
-7.0575
-7.0632
-7.06763
-7.07116
-7.07409
-7.07663
-7.07893
-7.08112
-7.08333
-7.08564
-7.08814
-7.0909
-7.094
-7.09747
-7.10138
-7.10577
-7.11067
-7.11613
-7.12217
-7.12883
-7.13613
-7.1441
-7.15276
-7.16211
-7.17219
-7.18298
-7.19451
-7.20678
-7.21979
-7.23355
-7.24805
-7.26329
-7.27928
-7.29599
-7.31344
-7.3316
-7.35048
-7.37006
-7.39032
-7.41127
-7.43288
-7.45512
-7.478
-7.50148
-7.52553
-7.55012
-7.57523
-7.6008
-7.62682
-7.65323
-7.68
-7.70706
-7.73437
-7.76186
-7.78947
-7.81711
-7.84472
-7.87219
-7.89945
-7.92637
-7.95287
-7.97881
-8.00408
-8.02854
-8.05205
-8.07447
-8.09565
-8.11542
-8.13362
-8.15008
-8.16462
-8.17705
-8.1872
-8.19486
-8.19983
-8.20193
-8.20094
-8.19666
-8.18888
-8.1774
-8.162
-8.14248
-8.11863
-8.09025
-8.05713
-8.01908
-7.9759
-7.92741
-7.87342
-7.81376
-7.74826
-7.67675
-7.59909
-7.51512
-7.42473
-7.32779
-7.22418
-7.11381
-6.99659
-6.87244
-6.74131
-6.60315
-6.45792
-6.30561
-6.1462
-5.97972
-5.80617
-5.62562
-5.4381
-5.2437
-5.0425
-4.83462
-4.62017
-4.39928
-4.17213
-3.93886
-3.69966
-3.45473
-3.20429
-2.94855
-2.68775
-2.42214
-2.152
-1.87758
-1.59918
-1.31709
-1.03163
-0.743088
-0.451812
-0.158123
0.137659
0.435207
0.734224
1.0344
1.33534
1.63669
1.93813
2.23933
2.53995
2.83967
3.13816
3.4351
3.7302
4.02314
4.31365
4.60143
4.88624
5.1678
5.44588
5.72024
5.99068
6.25699
6.51897
6.77645
7.02927
7.27728
7.52034
7.75832
7.99112
8.21862
8.44074
8.65739
8.86849
9.074
9.27388
9.46807
9.65654
9.83925
10.0162
10.1872
10.3524
10.5116
10.6647
10.8111
10.9515
11.0805
11.2147
11.2772
-7.04833
-7.05189
-7.05792
-7.06372
-7.06834
-7.07208
-7.07525
-7.07802
-7.08056
-7.083
-7.08546
-7.08803
-7.0908
-7.09383
-7.0972
-7.10095
-7.10513
-7.10978
-7.11494
-7.12065
-7.12694
-7.13383
-7.14135
-7.14952
-7.15836
-7.16788
-7.17811
-7.18905
-7.20071
-7.21309
-7.22621
-7.24006
-7.25464
-7.26996
-7.28602
-7.3028
-7.32031
-7.33854
-7.35749
-7.37714
-7.39748
-7.41851
-7.4402
-7.46255
-7.48552
-7.50909
-7.53325
-7.55795
-7.58319
-7.60891
-7.63508
-7.66166
-7.6886
-7.71585
-7.74334
-7.77102
-7.79882
-7.82666
-7.85447
-7.88214
-7.90959
-7.93671
-7.96339
-7.98951
-8.01494
-8.03955
-8.0632
-8.08575
-8.10703
-8.12688
-8.14515
-8.16165
-8.17622
-8.18865
-8.19878
-8.20639
-8.2113
-8.21331
-8.21221
-8.2078
-8.19987
-8.18822
-8.17263
-8.1529
-8.12883
-8.10021
-8.06684
-8.02853
-7.98509
-7.93632
-7.88204
-7.82209
-7.7563
-7.6845
-7.60654
-7.52229
-7.43162
-7.3344
-7.23053
-7.11989
-7.00242
-6.87803
-6.74667
-6.60829
-6.46285
-6.31034
-6.15076
-5.9841
-5.81041
-5.62972
-5.44209
-5.24758
-5.04631
-4.83836
-4.62386
-4.40295
-4.17578
-3.94252
-3.70335
-3.45847
-3.20809
-2.95242
-2.69172
-2.42623
-2.15621
-1.88193
-1.60368
-1.32176
-1.03647
-0.748118
-0.457042
-0.163553
0.132021
0.429352
0.728164
1.02812
1.32883
1.62995
1.93117
2.23214
2.53254
2.83204
3.13031
3.42705
3.72194
4.01469
4.30501
4.59261
4.87724
5.15863
5.43656
5.71078
5.98108
6.24726
6.50912
6.7665
7.01923
7.26715
7.51013
7.74805
7.98079
8.20825
8.43033
8.64695
8.85805
9.06355
9.26341
9.45758
9.64602
9.82868
10.0055
10.1764
10.3413
10.5001
10.6526
10.7981
10.9372
11.0644
11.1968
11.2549
-7.05075
-7.05414
-7.05992
-7.06564
-7.07031
-7.07414
-7.07742
-7.08033
-7.08301
-7.08561
-7.08823
-7.09097
-7.09391
-7.09712
-7.10066
-7.10457
-7.10891
-7.11371
-7.11902
-7.12487
-7.13128
-7.1383
-7.14593
-7.15421
-7.16315
-7.17277
-7.18308
-7.1941
-7.20583
-7.21828
-7.23146
-7.24537
-7.26001
-7.2754
-7.29151
-7.30837
-7.32595
-7.34427
-7.3633
-7.38305
-7.4035
-7.42463
-7.44644
-7.4689
-7.49199
-7.5157
-7.54
-7.56487
-7.59028
-7.61619
-7.64256
-7.66933
-7.69647
-7.72391
-7.7516
-7.77947
-7.80745
-7.83547
-7.86345
-7.89129
-7.91889
-7.94615
-7.97295
-7.99917
-8.02469
-8.04937
-8.07306
-8.09563
-8.11691
-8.13674
-8.15495
-8.17138
-8.18584
-8.19815
-8.20812
-8.21556
-8.22028
-8.22207
-8.22073
-8.21606
-8.20786
-8.19591
-8.18001
-8.15996
-8.13556
-8.10659
-8.07287
-8.0342
-7.99039
-7.94125
-7.88661
-7.82629
-7.76012
-7.68796
-7.60965
-7.52506
-7.43405
-7.33651
-7.23231
-7.12138
-7.00361
-6.87895
-6.74733
-6.6087
-6.46304
-6.31033
-6.15055
-5.98373
-5.80989
-5.62907
-5.44133
-5.24674
-5.0454
-4.8374
-4.62288
-4.40198
-4.17483
-3.94161
-3.7025
-3.4577
-3.20742
-2.95188
-2.69131
-2.42598
-2.15613
-1.88204
-1.60399
-1.32228
-1.03722
-0.749125
-0.458298
-0.165063
0.130238
0.427297
0.725849
1.02552
1.32592
1.62675
1.92768
2.22836
2.52848
2.8277
3.1257
3.42216
3.71679
4.00928
4.29934
4.5867
4.8711
5.15227
5.42998
5.704
5.97411
6.24011
6.50181
6.75903
7.01161
7.2594
7.50226
7.74007
7.97272
8.20009
8.4221
8.63867
8.84971
9.05517
9.25499
9.44912
9.6375
9.82007
9.99677
10.1675
10.3321
10.4905
10.6423
10.7869
10.9247
11.0501
11.1808
11.2355
-7.05479
-7.05795
-7.06337
-7.06886
-7.07343
-7.07721
-7.08048
-7.08341
-7.08613
-7.08877
-7.09144
-7.09423
-7.09723
-7.10049
-7.10408
-7.10804
-7.11243
-7.11728
-7.12263
-7.12852
-7.13498
-7.14202
-7.14969
-7.15799
-7.16695
-7.17659
-7.18692
-7.19795
-7.2097
-7.22217
-7.23537
-7.24932
-7.26401
-7.27944
-7.29562
-7.31254
-7.3302
-7.34859
-7.36771
-7.38755
-7.40809
-7.42934
-7.45126
-7.47385
-7.49709
-7.52096
-7.54543
-7.57048
-7.59608
-7.62217
-7.64871
-7.67567
-7.70297
-7.73056
-7.75838
-7.78638
-7.81447
-7.84259
-7.87065
-7.89855
-7.9262
-7.95348
-7.98028
-8.00648
-8.03194
-8.05654
-8.08013
-8.10256
-8.12367
-8.14332
-8.16132
-8.17751
-8.19172
-8.20375
-8.21342
-8.22054
-8.22491
-8.22634
-8.22463
-8.21958
-8.21097
-8.19861
-8.1823
-8.16183
-8.13699
-8.1076
-8.07345
-8.03434
-7.9901
-7.94054
-7.88548
-7.82474
-7.75818
-7.68563
-7.60695
-7.52199
-7.43063
-7.33275
-7.22824
-7.117
-6.99895
-6.87403
-6.74216
-6.60332
-6.45746
-6.30456
-6.14463
-5.97768
-5.80373
-5.62282
-5.43502
-5.24039
-5.03903
-4.83105
-4.61657
-4.39572
-4.16866
-3.93555
-3.69657
-3.45192
-3.20181
-2.94647
-2.68612
-2.42102
-2.15143
-1.87761
-1.59985
-1.31845
-1.03372
-0.745944
-0.455442
-0.162555
0.13238
0.429096
0.727305
1.02659
1.3266
1.62705
1.92761
2.22792
2.52767
2.82653
3.12417
3.42029
3.71457
4.00673
4.29647
4.58352
4.86761
5.14849
5.42593
5.69968
5.96954
6.23531
6.49678
6.75379
7.00618
7.25379
7.49649
7.73415
7.96666
8.19391
8.41582
8.63229
8.84326
9.04865
9.24841
9.44247
9.63078
9.81324
9.98978
10.1603
10.3246
10.4825
10.6336
10.7773
10.9138
11.0377
11.1666
11.2186
-7.06021
-7.06309
-7.06807
-7.07321
-7.07755
-7.08115
-7.08427
-7.08706
-7.08967
-7.09221
-7.09479
-7.09751
-7.10044
-7.10364
-7.10717
-7.11109
-7.11543
-7.12023
-7.12554
-7.13139
-7.1378
-7.1448
-7.15241
-7.16067
-7.16958
-7.17918
-7.18947
-7.20047
-7.21219
-7.22464
-7.23783
-7.25177
-7.26646
-7.2819
-7.2981
-7.31505
-7.33275
-7.35119
-7.37037
-7.39028
-7.41091
-7.43225
-7.4543
-7.47702
-7.50039
-7.5244
-7.549
-7.57417
-7.59987
-7.62605
-7.65267
-7.67968
-7.70702
-7.73464
-7.76246
-7.79042
-7.81848
-7.84654
-7.87451
-7.9023
-7.92981
-7.95693
-7.98354
-8.00951
-8.03473
-8.05905
-8.08234
-8.10445
-8.12522
-8.1445
-8.16211
-8.1779
-8.19168
-8.20328
-8.2125
-8.21916
-8.22307
-8.22402
-8.22183
-8.21628
-8.20719
-8.19434
-8.17753
-8.15657
-8.13125
-8.10137
-8.06674
-8.02717
-7.98247
-7.93247
-7.87697
-7.81582
-7.74886
-7.67593
-7.59688
-7.51158
-7.4199
-7.32171
-7.21692
-7.10542
-6.98714
-6.86201
-6.72996
-6.59095
-6.44496
-6.29196
-6.13195
-5.96494
-5.79096
-5.61005
-5.42228
-5.22771
-5.02643
-4.81856
-4.60422
-4.38353
-4.15666
-3.92376
-3.68503
-3.44064
-3.19082
-2.93578
-2.67577
-2.41102
-2.1418
-1.86837
-1.59102
-1.31005
-1.02574
-0.738386
-0.448332
-0.155917
0.138547
0.434829
0.732575
1.03135
1.33087
1.63084
1.93091
2.23075
2.53004
2.82843
3.12563
3.42131
3.71516
4.0069
4.29623
4.58288
4.86659
5.14711
5.4242
5.69762
5.96716
6.23263
6.49382
6.75057
7.00271
7.2501
7.49258
7.73006
7.96239
8.1895
8.41127
8.62763
8.8385
9.0438
9.24348
9.43746
9.62567
9.80801
9.98439
10.1547
10.3186
10.476
10.6265
10.7692
10.9046
11.0269
11.1541
11.2041
-7.06704
-7.06963
-7.07413
-7.07882
-7.08277
-7.08602
-7.0888
-7.09128
-7.09359
-7.09586
-7.09821
-7.10071
-7.10344
-7.10647
-7.10985
-7.11362
-7.11783
-7.1225
-7.12769
-7.13341
-7.13969
-7.14656
-7.15404
-7.16217
-7.17096
-7.18043
-7.1906
-7.20148
-7.21309
-7.22545
-7.23854
-7.2524
-7.26701
-7.28238
-7.29851
-7.31541
-7.33307
-7.3515
-7.37068
-7.3906
-7.41125
-7.43261
-7.45467
-7.47739
-7.50076
-7.52474
-7.5493
-7.5744
-7.6
-7.62607
-7.65255
-7.6794
-7.70655
-7.73395
-7.76155
-7.78928
-7.81707
-7.84485
-7.8725
-7.89995
-7.92709
-7.9538
-7.97997
-8.00549
-8.03023
-8.05406
-8.07683
-8.0984
-8.11863
-8.13736
-8.15441
-8.16963
-8.18284
-8.19386
-8.20251
-8.20859
-8.21193
-8.21231
-8.20955
-8.20345
-8.1938
-8.18041
-8.16308
-8.1416
-8.11578
-8.08541
-8.05031
-8.01029
-7.96516
-7.91474
-7.85886
-7.79736
-7.73005
-7.6568
-7.57746
-7.49189
-7.39995
-7.30155
-7.19656
-7.0849
-6.96649
-6.84125
-6.70912
-6.57006
-6.42405