/*--------------------------------*- C++ -*----------------------------------*\
| =========                 |                                                 |
| \\      /  F ield         | OpenFOAM: The Open Source CFD Toolbox           |
|  \\    /   O peration     | Version:  2406                                  |
|   \\  /    A nd           | Website:  www.openfoam.com                      |
|    \\/     M anipulation  |                                                 |
\*---------------------------------------------------------------------------*/
FoamFile
{
    version     2.0;
    format      ascii;
    arch        "LSB;label=32;scalar=64";
    class       surfaceScalarField;
    location    "281";
    object      phi;
}
// * * * * * * * * * * * * * * * * * * * * * * * * * * * * * * * * * * * * * //

dimensions      [0 3 -1 0 0 0 0];

oriented        oriented;

internalField   nonuniform List<scalar> 
24170
(
3.11644e-06
7.19617e-08
3.01269e-06
1.0376e-07
2.91728e-06
9.54098e-08
2.82625e-06
9.1026e-08
2.74024e-06
8.60094e-08
2.66274e-06
7.75059e-08
2.59485e-06
6.78877e-08
2.53594e-06
5.89094e-08
2.48489e-06
5.10455e-08
2.44063e-06
4.42664e-08
2.40218e-06
3.84462e-08
2.36874e-06
3.3442e-08
2.33963e-06
2.91063e-08
2.31432e-06
2.53164e-08
2.29248e-06
2.18328e-08
2.27365e-06
1.8831e-08
2.25761e-06
1.60414e-08
1.26859e-08
2.24492e-06
3.46686e-06
2.23489e-08
3.48677e-06
8.38533e-08
3.49349e-06
8.86964e-08
3.49229e-06
9.22291e-08
3.48432e-06
9.39764e-08
3.47072e-06
9.11102e-08
3.45278e-06
8.58253e-08
3.43174e-06
7.99516e-08
3.4087e-06
7.40834e-08
3.38457e-06
6.83981e-08
3.36005e-06
6.29642e-08
3.33565e-06
5.78387e-08
3.31175e-06
5.3006e-08
3.28861e-06
4.84537e-08
3.26643e-06
4.40128e-08
3.24543e-06
3.98361e-08
3.22637e-06
3.50973e-08
2.887e-08
3.21019e-06
3.66722e-06
1.76452e-08
3.68039e-06
7.0684e-08
3.69009e-06
7.89938e-08
3.70005e-06
8.22712e-08
3.70916e-06
8.48651e-08
3.71624e-06
8.4029e-08
3.7212e-06
8.08641e-08
3.72424e-06
7.69109e-08
3.7256e-06
7.27293e-08
3.72552e-06
6.84728e-08
3.72427e-06
6.42188e-08
3.72207e-06
6.00405e-08
3.71912e-06
5.59529e-08
3.71563e-06
5.19443e-08
3.71173e-06
4.79108e-08
3.70778e-06
4.37869e-08
3.70379e-06
3.90851e-08
3.32513e-08
3.69941e-06
3.92502e-06
1.80143e-08
3.93555e-06
6.01509e-08
3.94312e-06
7.14306e-08
3.95015e-06
7.524e-08
3.95683e-06
7.81861e-08
3.96262e-06
7.82404e-08
3.96758e-06
7.59035e-08
3.9719e-06
7.25851e-08
3.97569e-06
6.89447e-08
3.97899e-06
6.51701e-08
3.98187e-06
6.1343e-08
3.98438e-06
5.75323e-08
3.98657e-06
5.37563e-08
3.98852e-06
4.99957e-08
3.99027e-06
4.61615e-08
3.99191e-06
4.2146e-08
3.99329e-06
3.7704e-08
3.25357e-08
3.99401e-06
4.20803e-06
1.71108e-08
4.21607e-06
5.21074e-08
4.22223e-06
6.52711e-08
4.22774e-06
6.97365e-08
4.23318e-06
7.27433e-08
4.23821e-06
7.3212e-08
4.24273e-06
7.13763e-08
4.24686e-06
6.84621e-08
4.25065e-06
6.51555e-08
4.25415e-06
6.16675e-08
4.25741e-06
5.80857e-08
4.26046e-06
5.44774e-08
4.26335e-06
5.0866e-08
4.26611e-06
4.72335e-08
4.26876e-06
4.35092e-08
4.27131e-06
3.9604e-08
4.27363e-06
3.53826e-08
3.07108e-08
4.27545e-06
4.51074e-06
1.54583e-08
4.51711e-06
4.57323e-08
4.52281e-06
5.95801e-08
4.52795e-06
6.45933e-08
4.53309e-06
6.76048e-08
4.53795e-06
6.83522e-08
4.54238e-06
6.69472e-08
4.54643e-06
6.44098e-08
4.55018e-06
6.14048e-08
4.55368e-06
5.81633e-08
4.55699e-06
5.47851e-08
4.56012e-06
5.13407e-08
4.56313e-06
4.78613e-08
4.56602e-06
4.4336e-08
4.56882e-06
4.07171e-08
4.57148e-06
3.69423e-08
4.57392e-06
3.29433e-08
2.86865e-08
4.57594e-06
4.83439e-06
1.37923e-08
4.83991e-06
4.02077e-08
4.84553e-06
5.39636e-08
4.85064e-06
5.94749e-08
4.85571e-06
6.25425e-08
4.86054e-06
6.35213e-08
4.86498e-06
6.25005e-08
4.86908e-06
6.03172e-08
4.87288e-06
5.75976e-08
4.87646e-06
5.45898e-08
4.87983e-06
5.14066e-08
4.88305e-06
4.81228e-08
4.88614e-06
4.47783e-08
4.8891e-06
4.13727e-08
4.89193e-06
3.78805e-08
4.89461e-06
3.42669e-08
4.89704e-06
3.05104e-08
2.66346e-08
4.8991e-06
5.1811e-06
1.22689e-08
5.18607e-06
3.52395e-08
5.19158e-06
4.84577e-08
5.1967e-06
5.43504e-08
5.20176e-06
5.74849e-08
5.20664e-06
5.86428e-08
5.21118e-06
5.79556e-08
5.2154e-06
5.61027e-08
5.21933e-06
5.36595e-08
5.22304e-06
5.08847e-08
5.22655e-06
4.79014e-08
5.22988e-06
4.47893e-08
5.23306e-06
4.15961e-08
5.2361e-06
3.83338e-08
5.23898e-06
3.49971e-08
5.24167e-06
3.1575e-08
5.24411e-06
2.80758e-08
2.45469e-08
5.2462e-06
5.55276e-06
1.08502e-08
5.55723e-06
3.07617e-08
5.56253e-06
4.31632e-08
5.56763e-06
4.92437e-08
5.5727e-06
5.24129e-08
5.57766e-06
5.36902e-08
5.58233e-06
5.32822e-08
5.5867e-06
5.17332e-08
5.5908e-06
4.95571e-08
5.59467e-06
4.70164e-08
5.59833e-06
4.42411e-08
5.6018e-06
4.13153e-08
5.60511e-06
3.82938e-08
5.60824e-06
3.5201e-08
5.61119e-06
3.20477e-08
5.61392e-06
2.88424e-08
5.61639e-06
2.56096e-08
2.24062e-08
5.61853e-06
5.95111e-06
9.51543e-09
5.95514e-06
2.67285e-08
5.96018e-06
3.81266e-08
5.96524e-06
4.4183e-08
5.97031e-06
4.73387e-08
5.97532e-06
4.86802e-08
5.98011e-06
4.84925e-08
5.98463e-06
4.72132e-08
5.9889e-06
4.52889e-08
5.99294e-06
4.29784e-08
5.99676e-06
4.04166e-08
6.00039e-06
3.76904e-08
6.00382e-06
3.486e-08
6.00706e-06
3.19604e-08
6.0101e-06
2.90149e-08
6.01289e-06
2.60455e-08
6.01542e-06
2.30846e-08
2.01909e-08
6.01763e-06
6.37806e-06
8.26521e-09
6.38171e-06
2.30836e-08
6.38648e-06
3.33572e-08
6.39146e-06
3.91937e-08
6.39652e-06
4.22799e-08
6.40156e-06
4.36377e-08
6.40645e-06
4.36112e-08
6.4111e-06
4.25617e-08
6.41552e-06
4.08697e-08
6.41971e-06
3.87819e-08
6.42369e-06
3.64354e-08
6.42747e-06
3.39185e-08
6.43103e-06
3.12951e-08
6.43438e-06
2.8608e-08
6.43751e-06
2.58892e-08
6.44039e-06
2.31688e-08
6.44299e-06
2.04817e-08
1.78842e-08
6.44529e-06
5.74183e-06
7.2677e-09
5.74464e-06
2.02704e-08
5.74847e-06
2.95316e-08
5.75262e-06
3.50454e-08
5.75687e-06
3.80255e-08
5.76114e-06
3.93658e-08
5.76532e-06
3.94323e-08
5.76934e-06
3.85448e-08
5.77318e-06
3.70328e-08
5.77683e-06
3.51266e-08
5.7803e-06
3.29617e-08
5.7836e-06
3.06271e-08
5.7867e-06
2.81881e-08
5.78962e-06
2.56917e-08
5.79233e-06
2.31747e-08
5.79483e-06
2.06709e-08
5.7971e-06
1.82144e-08
1.58592e-08
5.79912e-06
6.99922e-06
6.20042e-09
7.00221e-06
1.728e-08
7.00637e-06
2.53758e-08
7.011e-06
3.04082e-08
7.01584e-06
3.31932e-08
7.02073e-06
3.44687e-08
7.02557e-06
3.45986e-08
7.03025e-06
3.38622e-08
7.03475e-06
3.25362e-08
7.03904e-06
3.08287e-08
7.04313e-06
2.88705e-08
7.04701e-06
2.6749e-08
7.05067e-06
2.45296e-08
7.0541e-06
2.22614e-08
7.05729e-06
1.99838e-08
7.06023e-06
1.7732e-08
7.06291e-06
1.55376e-08
1.34504e-08
7.06532e-06
8.53198e-06
5.0713e-09
8.53511e-06
1.41423e-08
8.53957e-06
2.09196e-08
8.54468e-06
2.52919e-08
8.55011e-06
2.77667e-08
8.55567e-06
2.89112e-08
8.56121e-06
2.90596e-08
8.56662e-06
2.84509e-08
8.57184e-06
2.73097e-08
8.57686e-06
2.58151e-08
8.58164e-06
2.40885e-08
8.58618e-06
2.22128e-08
8.59046e-06
2.02506e-08
8.59447e-06
1.82505e-08
8.5982e-06
1.62517e-08
8.60164e-06
1.42881e-08
8.60479e-06
1.23874e-08
1.05937e-08
8.60765e-06
1.04004e-05
3.89132e-09
1.04037e-05
1.08803e-08
1.04084e-05
1.61886e-08
1.0414e-05
1.97101e-08
1.042e-05
2.1735e-08
1.04263e-05
2.26617e-08
1.04325e-05
2.27677e-08
1.04387e-05
2.22499e-08
1.04448e-05
2.12823e-08
1.04506e-05
2.00097e-08
1.04561e-05
1.85374e-08
1.04614e-05
1.69396e-08
1.04664e-05
1.52727e-08
1.0471e-05
1.35813e-08
1.04754e-05
1.19009e-08
1.04794e-05
1.02617e-08
1.04831e-05
8.68628e-09
7.21204e-09
1.04865e-05
1.2678e-05
2.66803e-09
1.26814e-05
7.49274e-09
1.26864e-05
1.11853e-08
1.26924e-05
1.36638e-08
1.26991e-05
1.50781e-08
1.27061e-05
1.56786e-08
1.27132e-05
1.56666e-08
1.27202e-05
1.519e-08
1.27272e-05
1.43741e-08
1.27338e-05
1.33254e-08
1.27403e-05
1.21259e-08
1.27464e-05
1.08357e-08
1.27521e-05
9.50046e-09
1.27576e-05
8.15664e-09
1.27626e-05
6.83322e-09
1.27673e-05
5.55413e-09
1.27717e-05
4.33573e-09
3.20845e-09
1.27757e-05
1.54545e-05
1.39303e-09
1.5458e-05
3.93642e-09
1.54633e-05
5.85542e-09
1.54699e-05
7.09732e-09
1.54773e-05
7.72737e-09
1.54851e-05
7.8757e-09
1.54931e-05
7.6582e-09
1.55011e-05
7.16468e-09
1.5509e-05
6.47088e-09
1.55167e-05
5.64196e-09
1.55241e-05
4.72982e-09
1.55311e-05
3.77387e-09
1.55378e-05
2.8045e-09
1.55441e-05
1.84587e-09
1.55501e-05
9.17186e-10
1.55556e-05
3.40571e-11
1.55607e-05
-7.94042e-10
-1.54429e-09
1.55655e-05
1.8839e-05
2.69757e-11
1.88429e-05
8.67579e-11
1.88487e-05
2.27622e-11
1.8856e-05
-1.85059e-10
1.88642e-05
-5.22434e-10
1.88731e-05
-9.59625e-10
1.88822e-05
-1.4726e-09
1.88914e-05
-2.03926e-09
1.89005e-05
-2.63746e-09
1.89094e-05
-3.24769e-09
1.8918e-05
-3.85455e-09
1.89262e-05
-4.44586e-09
1.8934e-05
-5.0116e-09
1.89414e-05
-5.5435e-09
1.89483e-05
-6.03498e-09
1.89549e-05
-6.48052e-09
1.89609e-05
-6.8782e-09
-7.21338e-09
1.89666e-05
2.29649e-05
-1.53171e-09
2.29693e-05
-4.35142e-09
2.29761e-05
-6.74777e-09
2.29846e-05
-8.68711e-09
2.29943e-05
-1.01874e-08
2.30046e-05
-1.13346e-08
2.30154e-05
-1.2218e-08
2.30262e-05
-1.2892e-08
2.3037e-05
-1.33933e-08
2.30475e-05
-1.37572e-08
2.30577e-05
-1.40144e-08
2.30674e-05
-1.41868e-08
2.30767e-05
-1.42898e-08
2.30855e-05
-1.43344e-08
2.30938e-05
-1.43291e-08
2.31016e-05
-1.42801e-08
2.31089e-05
-1.41935e-08
-1.40633e-08
2.31157e-05
1.68119e-05
-2.73725e-09
1.68153e-05
-7.76408e-09
1.68205e-05
-1.19693e-08
1.68271e-05
-1.52062e-08
1.68344e-05
-1.7517e-08
1.68422e-05
-1.91349e-08
1.68502e-05
-2.02535e-08
1.68583e-05
-2.09724e-08
1.68663e-05
-2.13691e-08
1.6874e-05
-2.15234e-08
1.68815e-05
-2.15013e-08
1.68887e-05
-2.1349e-08
1.68955e-05
-2.10998e-08
1.6902e-05
-2.07791e-08
1.6908e-05
-2.0406e-08
1.69137e-05
-1.99942e-08
1.69191e-05
-1.95544e-08
-1.90861e-08
1.69241e-05
1.46357e-05
-3.87366e-09
1.4639e-05
-1.1036e-08
1.4644e-05
-1.70147e-08
1.46502e-05
-2.14091e-08
1.46571e-05
-2.43576e-08
1.46643e-05
-2.63332e-08
1.46716e-05
-2.76104e-08
1.4679e-05
-2.8308e-08
1.46861e-05
-2.85529e-08
1.46931e-05
-2.84763e-08
1.46998e-05
-2.81736e-08
1.47061e-05
-2.77084e-08
1.47122e-05
-2.71287e-08
1.47178e-05
-2.64719e-08
1.47232e-05
-2.57658e-08
1.47282e-05
-2.50298e-08
1.4733e-05
-2.42788e-08
-2.35157e-08
1.47374e-05
1.27412e-05
-4.90179e-09
1.27444e-05
-1.42908e-08
1.27495e-05
-2.21359e-08
1.27556e-05
-2.74601e-08
1.27621e-05
-3.0826e-08
1.27688e-05
-3.30773e-08
1.27756e-05
-3.44581e-08
1.27824e-05
-3.50679e-08
1.2789e-05
-3.5108e-08
1.27953e-05
-3.47698e-08
1.28013e-05
-3.41722e-08
1.28069e-05
-3.33924e-08
1.28123e-05
-3.24908e-08
1.28173e-05
-3.15154e-08
1.28221e-05
-3.04997e-08
1.28265e-05
-2.94665e-08
1.28307e-05
-2.84308e-08
-2.73967e-08
1.28345e-05
1.10917e-05
-5.69178e-09
1.1095e-05
-1.75689e-08
1.11004e-05
-2.75379e-08
1.11064e-05
-3.34469e-08
1.11125e-05
-3.69804e-08
1.11189e-05
-3.9422e-08
1.11253e-05
-4.083e-08
1.11315e-05
-4.12892e-08
1.11375e-05
-4.10962e-08
1.11432e-05
-4.04877e-08
1.11486e-05
-3.95926e-08
1.11537e-05
-3.85006e-08
1.11585e-05
-3.72863e-08
1.1163e-05
-3.60075e-08
1.11672e-05
-3.47027e-08
1.11711e-05
-3.33978e-08
1.11748e-05
-3.21113e-08
-3.08515e-08
1.11783e-05
9.65567e-06
-6.14839e-09
9.65906e-06
-2.09625e-08
9.66466e-06
-3.31311e-08
9.67045e-06
-3.92389e-08
9.67637e-06
-4.29013e-08
9.68243e-06
-4.54856e-08
9.68839e-06
-4.67844e-08
9.6941e-06
-4.69974e-08
9.69954e-06
-4.65396e-08
9.70471e-06
-4.56586e-08
9.70959e-06
-4.44747e-08
9.71418e-06
-4.30863e-08
9.71847e-06
-4.15799e-08
9.72248e-06
-4.00214e-08
9.72623e-06
-3.84525e-08
9.72974e-06
-3.69001e-08
9.733e-06
-3.5377e-08
-3.38777e-08
9.73603e-06
8.40505e-06
-5.84196e-09
8.40934e-06
-2.52545e-08
8.41475e-06
-3.85409e-08
8.41986e-06
-4.43515e-08
8.42544e-06
-4.84823e-08
8.43132e-06
-5.13598e-08
8.43704e-06
-5.25142e-08
8.44248e-06
-5.24368e-08
8.44763e-06
-5.1683e-08
8.45247e-06
-5.05021e-08
8.45701e-06
-4.90105e-08
8.46124e-06
-4.73175e-08
8.46518e-06
-4.55196e-08
8.46884e-06
-4.3688e-08
8.47226e-06
-4.18669e-08
8.47544e-06
-4.00854e-08
8.47843e-06
-3.83677e-08
-3.67242e-08
8.48128e-06
7.31386e-06
-2.41485e-09
7.32071e-06
-3.21077e-08
7.3265e-06
-4.43321e-08
7.33132e-06
-4.91749e-08
7.33671e-06
-5.38717e-08
7.34239e-06
-5.70316e-08
7.34793e-06
-5.80581e-08
7.35325e-06
-5.77568e-08
7.35832e-06
-5.67538e-08
7.3631e-06
-5.52821e-08
7.36757e-06
-5.34752e-08
7.37171e-06
-5.14635e-08
7.37555e-06
-4.93602e-08
7.3791e-06
-4.72408e-08
7.38239e-06
-4.51552e-08
7.38544e-06
-4.31332e-08
7.38826e-06
-4.11854e-08
-3.92609e-08
7.39079e-06
6.36063e-06
7.02386e-09
6.37028e-06
-4.17647e-08
6.37818e-06
-5.22233e-08
6.38526e-06
-5.6259e-08
6.39239e-06
-6.10002e-08
6.39901e-06
-6.3653e-08
6.40501e-06
-6.40539e-08
6.41056e-06
-6.33123e-08
6.41577e-06
-6.19617e-08
6.42062e-06
-6.01378e-08
6.42512e-06
-5.79662e-08
6.42924e-06
-5.55886e-08
6.43301e-06
-5.31332e-08
6.43645e-06
-5.06772e-08
6.43957e-06
-4.82783e-08
6.44242e-06
-4.59779e-08
6.44504e-06
-4.38073e-08
-4.17933e-08
6.44757e-06
5.53889e-06
1.35963e-08
5.54754e-06
-5.04127e-08
5.5559e-06
-6.05871e-08
5.56614e-06
-6.64976e-08
5.57735e-06
-7.2204e-08
5.58784e-06
-7.41496e-08
5.59706e-06
-7.32749e-08
5.60503e-06
-7.12747e-08
5.6118e-06
-6.8736e-08
5.61746e-06
-6.57992e-08
5.62208e-06
-6.25879e-08
5.62575e-06
-5.92571e-08
5.62856e-06
-5.59423e-08
5.6306e-06
-5.2718e-08
5.63196e-06
-4.96359e-08
5.63275e-06
-4.67651e-08
5.63306e-06
-4.41161e-08
-4.17815e-08
5.63304e-06
4.87081e-06
-2.96045e-08
4.8865e-06
-6.61087e-08
4.89726e-06
-7.13397e-08
4.906e-06
-7.52397e-08
4.91305e-06
-7.92582e-08
4.91734e-06
-7.84326e-08
4.91817e-06
-7.41112e-08
4.91544e-06
-6.85451e-08
4.90946e-06
-6.27541e-08
4.90074e-06
-5.7079e-08
4.88984e-06
-5.16905e-08
4.87727e-06
-4.6688e-08
4.86349e-06
-4.2153e-08
4.84885e-06
-3.80779e-08
4.83366e-06
-3.44486e-08
4.81818e-06
-3.12888e-08
4.80268e-06
-2.86138e-08
-2.69204e-08
4.78782e-06
4.17307e-06
4.10696e-06
4.03562e-06
3.96038e-06
3.88113e-06
3.80269e-06
3.72858e-06
3.66004e-06
3.59728e-06
3.5402e-06
3.48851e-06
3.44183e-06
3.39967e-06
3.36159e-06
3.32715e-06
3.29586e-06
3.26724e-06
3.24032e-06
5.88423e-09
-5.88698e-09
1.77656e-08
-1.18853e-08
3.15323e-08
-1.37707e-08
4.48225e-08
-1.32934e-08
5.62787e-08
-1.146e-08
6.5238e-08
-8.96224e-09
7.14782e-08
-6.24412e-09
7.50353e-08
-3.56013e-09
7.6082e-08
-1.05086e-09
7.49037e-08
1.17513e-09
7.18738e-08
3.02545e-09
6.73798e-08
4.49063e-09
6.1729e-08
5.64611e-09
5.51295e-08
6.5958e-09
4.76782e-08
7.44605e-09
3.93864e-08
8.28776e-09
3.01969e-08
9.18372e-09
2.00216e-08
1.01709e-08
8.76269e-09
1.12526e-08
-3.68886e-09
1.2447e-08
-1.7561e-08
1.38658e-08
-3.30554e-08
1.54904e-08
-5.03083e-08
1.7247e-08
-6.94737e-08
1.91616e-08
-9.07101e-08
2.12305e-08
-1.14148e-07
2.34336e-08
-1.39893e-07
2.57389e-08
-1.68003e-07
2.81055e-08
-1.98494e-07
3.04851e-08
-2.31322e-07
3.28226e-08
-2.66388e-07
3.50602e-08
-3.03547e-07
3.71542e-08
-3.42626e-07
3.90729e-08
-3.83424e-07
4.07932e-08
-4.25728e-07
4.22993e-08
-4.69312e-07
4.35792e-08
-5.13947e-07
4.46308e-08
-5.59412e-07
4.54609e-08
-6.05497e-07
4.6082e-08
-6.52012e-07
4.6511e-08
-6.98783e-07
4.67676e-08
-7.45659e-07
4.68732e-08
-7.92512e-07
4.68495e-08
-8.39232e-07
4.67179e-08
-8.85734e-07
4.64991e-08
-9.31952e-07
4.62156e-08
-9.77851e-07
4.58967e-08
-1.02343e-06
4.55781e-08
-1.06871e-06
4.52789e-08
-1.11371e-06
4.49952e-08
-1.15844e-06
4.47233e-08
-1.2029e-06
4.4461e-08
-1.24711e-06
4.42068e-08
-1.29107e-06
4.39588e-08
-1.33479e-06
4.37153e-08
-1.37827e-06
4.34742e-08
-1.42151e-06
4.32333e-08
-1.4645e-06
4.29898e-08
-1.50725e-06
4.27413e-08
-1.54974e-06
4.24847e-08
-1.59196e-06
4.22172e-08
-1.6339e-06
4.19356e-08
-1.67554e-06
4.16371e-08
-1.71686e-06
4.13186e-08
-1.75784e-06
4.09774e-08
-1.79846e-06
4.06106e-08
-1.83867e-06
4.02159e-08
-1.87847e-06
3.97904e-08
-1.9178e-06
3.93324e-08
-1.95665e-06
3.88392e-08
-1.99496e-06
3.83094e-08
-2.0327e-06
3.77409e-08
-2.06984e-06
3.71323e-08
-2.10632e-06
3.64822e-08
-2.14212e-06
3.57896e-08
-2.17717e-06
3.50532e-08
-2.21145e-06
3.42726e-08
-2.2449e-06
3.3447e-08
-2.27748e-06
3.25762e-08
-2.30914e-06
3.16597e-08
-2.33985e-06
3.06976e-08
-2.36954e-06
2.96897e-08
-2.39818e-06
2.86367e-08
-2.42572e-06
2.75382e-08
-2.45212e-06
2.63951e-08
-2.47733e-06
2.52075e-08
-2.50131e-06
2.39766e-08
-2.52401e-06
2.27023e-08
-2.5454e-06
2.13856e-08
-2.56542e-06
2.00263e-08
-2.58405e-06
1.86241e-08
-2.60123e-06
1.71785e-08
-2.61692e-06
1.56883e-08
-2.63107e-06
1.41511e-08
-2.64363e-06
1.25629e-08
-2.65456e-06
1.09185e-08
-2.66377e-06
9.21116e-09
-2.67121e-06
7.43066e-09
-2.67677e-06
5.56044e-09
-2.68036e-06
3.58333e-09
-2.68188e-06
1.51864e-09
-2.68138e-06
-5.1411e-10
-2.67904e-06
-2.34749e-09
-2.67503e-06
-4.02116e-09
-2.66937e-06
-5.66381e-09
-2.66208e-06
-7.30036e-09
-2.65315e-06
-8.94072e-09
-2.64257e-06
-1.05866e-08
-2.63034e-06
-1.22366e-08
-2.61646e-06
-1.38899e-08
-2.60092e-06
-1.55439e-08
-2.58373e-06
-1.71973e-08
-2.56489e-06
-1.88473e-08
-2.5444e-06
-2.04927e-08
-2.52227e-06
-2.21304e-08
-2.49851e-06
-2.37594e-08
-2.47314e-06
-2.53766e-08
-2.44616e-06
-2.69809e-08
-2.41759e-06
-2.85692e-08
-2.38745e-06
-3.01406e-08
-2.35575e-06
-3.16925e-08
-2.32253e-06
-3.32234e-08
-2.28781e-06
-3.47302e-08
-2.2516e-06
-3.62111e-08
-2.21394e-06
-3.76628e-08
-2.17486e-06
-3.90842e-08
-2.13438e-06
-4.04723e-08
-2.09255e-06
-4.18266e-08
-2.0494e-06
-4.31447e-08
-2.00497e-06
-4.44269e-08
-1.95929e-06
-4.56711e-08
-1.9124e-06
-4.68769e-08
-1.86434e-06
-4.80418e-08
-1.81516e-06
-4.91672e-08
-1.7649e-06
-5.02465e-08
-1.71361e-06
-5.12738e-08
-1.66133e-06
-5.22548e-08
-1.60812e-06
-5.31919e-08
-1.55403e-06
-5.40792e-08
-1.4991e-06
-5.49141e-08
-1.44339e-06
-5.56963e-08
-1.38695e-06
-5.64255e-08
-1.32984e-06
-5.71014e-08
-1.27211e-06
-5.77234e-08
-1.21382e-06
-5.82918e-08
-1.15501e-06
-5.88062e-08
-1.09574e-06
-5.92673e-08
-1.03607e-06
-5.9675e-08
-9.76041e-07
-6.00302e-08
-9.15713e-07
-6.03333e-08
-8.55135e-07
-6.05857e-08
-7.94356e-07
-6.07879e-08
-7.33426e-07
-6.09416e-08
-6.72392e-07
-6.10479e-08
-6.11299e-07
-6.11084e-08
-5.50192e-07
-6.11246e-08
-4.89112e-07
-6.10985e-08
-4.28101e-07
-6.10314e-08
-3.67197e-07
-6.09252e-08
-3.06439e-07
-6.07801e-08
-2.45864e-07
-6.05982e-08
-1.85511e-07
-6.03774e-08
-1.25411e-07
-6.01248e-08
-6.55875e-08
-5.98486e-08
-6.13895e-09
-5.94736e-08
5.29656e-08
-5.91294e-08
1.11725e-07
-5.87826e-08
1.70016e-07
-5.83142e-08
2.27836e-07
-5.78418e-08
2.85187e-07
-5.73724e-08
3.42058e-07
-5.68914e-08
3.98411e-07
-5.63731e-08
4.54168e-07
-5.57763e-08
5.09179e-07
-5.50294e-08
5.6316e-07
-5.3998e-08
6.15539e-07
-5.23962e-08
6.6512e-07
-4.95953e-08
7.08925e-07
-4.3819e-08
7.3999e-07
-3.10763e-08
1.10902e-08
7.28889e-07
1.14229e-08
-1.73128e-08
2.33188e-08
-2.3785e-08
3.19402e-08
-2.23948e-08
3.74625e-08
-1.88178e-08
4.04557e-08
-1.44551e-08
4.13008e-08
-9.80908e-09
4.02228e-08
-5.16815e-09
3.73795e-08
-7.18644e-10
3.28998e-08
3.42672e-09
2.6866e-08
7.20717e-09
1.92861e-08
1.06031e-08
1.01372e-08
1.36376e-08
-6.00203e-10
1.63812e-08
-1.29457e-08
1.89392e-08
-2.69301e-08
2.14281e-08
-4.25985e-08
2.39541e-08
-6.00206e-08
2.66034e-08
-7.92852e-08
2.94335e-08
-1.00509e-07
3.24741e-08
-1.23805e-07
3.57416e-08
-1.49191e-07
3.92497e-08
-1.76694e-07
4.29907e-08
-2.06385e-07
4.69362e-08
-2.38272e-07
5.10469e-08
-2.72309e-07
5.52656e-08
-3.08398e-07
5.95202e-08
-3.4639e-07
6.37282e-08
-3.86091e-07
6.78046e-08
-4.27281e-07
7.16718e-08
-4.69729e-07
7.52687e-08
-5.13217e-07
7.8545e-08
-5.57522e-07
8.14568e-08
-6.02427e-07
8.39752e-08
-6.47724e-07
8.60883e-08
-6.93226e-07
8.77979e-08
-7.38763e-07
8.91145e-08
-7.84195e-07
9.00601e-08
-8.29405e-07
9.06686e-08
-8.74304e-07
9.09791e-08
-9.18828e-07
9.10325e-08
-9.62932e-07
9.087e-08
-1.00659e-06
9.05315e-08
-1.0498e-06
9.00545e-08
-1.09256e-06
8.94734e-08
-1.13488e-06
8.88198e-08
-1.17679e-06
8.81238e-08
-1.21831e-06
8.74141e-08
-1.25944e-06
8.67138e-08
-1.3002e-06
8.60341e-08
-1.34058e-06
8.53765e-08
-1.3806e-06
8.47401e-08
-1.42027e-06
8.41227e-08
-1.45958e-06
8.35211e-08
-1.49856e-06
8.29316e-08
-1.53719e-06
8.23496e-08
-1.57549e-06
8.17704e-08
-1.61345e-06
8.11887e-08
-1.65106e-06
8.05993e-08
-1.68832e-06
7.99965e-08
-1.72521e-06
7.93748e-08
-1.76173e-06
7.87286e-08
-1.79785e-06
7.80525e-08
-1.83355e-06
7.73412e-08
-1.86883e-06
7.65893e-08
-1.90364e-06
7.57921e-08
-1.93798e-06
7.49449e-08
-1.97181e-06
7.40434e-08
-2.0051e-06
7.30835e-08
-2.03784e-06
7.20614e-08
-2.06997e-06
7.09738e-08
-2.10148e-06
6.98176e-08
-2.13233e-06
6.85899e-08
-2.16249e-06
6.72886e-08
-2.19192e-06
6.59112e-08
-2.22059e-06
6.44562e-08
-2.24846e-06
6.29222e-08
-2.2755e-06
6.1308e-08
-2.30167e-06
5.96128e-08
-2.32693e-06
5.78363e-08
-2.35125e-06
5.59778e-08
-2.3746e-06
5.40378e-08
-2.39692e-06
5.20162e-08
-2.4182e-06
4.99137e-08
-2.4384e-06
4.77307e-08
-2.45747e-06
4.54682e-08
-2.4754e-06
4.31272e-08
-2.49213e-06
4.07091e-08
-2.50764e-06
3.82146e-08
-2.5219e-06
3.56454e-08
-2.53488e-06
3.30019e-08
-2.54654e-06
3.02852e-08
-2.55686e-06
2.7496e-08
-2.5658e-06
2.4635e-08
-2.57336e-06
2.17029e-08
-2.5795e-06
1.87002e-08
-2.58421e-06
1.56281e-08
-2.58749e-06
1.24886e-08
-2.58935e-06
9.28508e-09
-2.58982e-06
6.02611e-09
-2.58897e-06
2.73675e-09
-2.58692e-06
-5.3612e-10
-2.58368e-06
-3.75771e-09
-2.57908e-06
-6.95382e-09
-2.57295e-06
-1.01612e-08
-2.56524e-06
-1.33833e-08
-2.55593e-06
-1.66196e-08
-2.545e-06
-1.98707e-08
-2.53246e-06
-2.31344e-08
-2.5183e-06
-2.64078e-08
-2.5025e-06
-2.96872e-08
-2.48508e-06
-3.29687e-08
-2.46603e-06
-3.62484e-08
-2.44536e-06
-3.95219e-08
-2.42307e-06
-4.27855e-08
-2.39917e-06
-4.60346e-08
-2.37366e-06
-4.92656e-08
-2.34657e-06
-5.24739e-08
-2.31789e-06
-5.56555e-08
-2.28765e-06
-5.88063e-08
-2.25587e-06
-6.19228e-08
-2.22257e-06
-6.50008e-08
-2.18775e-06
-6.80364e-08
-2.15146e-06
-7.10247e-08
-2.11372e-06
-7.39611e-08
-2.07454e-06
-7.68409e-08
-2.03396e-06
-7.96603e-08
-1.99202e-06
-8.24147e-08
-1.94874e-06
-8.51012e-08
-1.90417e-06
-8.77162e-08
-1.85833e-06
-9.02577e-08
-1.81128e-06
-9.27235e-08
-1.76303e-06
-9.51121e-08
-1.71365e-06
-9.74213e-08
-1.66316e-06
-9.96496e-08
-1.61161e-06
-1.01786e-07
-1.55905e-06
-1.03822e-07
-1.50553e-06
-1.05766e-07
-1.45109e-06
-1.07619e-07
-1.39579e-06
-1.09373e-07
-1.33967e-06
-1.11023e-07
-1.28279e-06
-1.12567e-07
-1.2252e-06
-1.14006e-07
-1.16696e-06
-1.15338e-07
-1.10812e-06
-1.16563e-07
-1.04873e-06
-1.1768e-07
-9.88846e-07
-1.18689e-07
-9.28522e-07
-1.19591e-07
-8.67811e-07
-1.20387e-07
-8.06765e-07
-1.21077e-07
-7.45438e-07
-1.21664e-07
-6.8388e-07
-1.22148e-07
-6.22142e-07
-1.22532e-07
-5.60271e-07
-1.22818e-07
-4.98317e-07
-1.2301e-07
-4.36323e-07
-1.2311e-07
-3.74336e-07
-1.23121e-07
-3.12397e-07
-1.23048e-07
-2.50546e-07
-1.22893e-07
-1.88823e-07
-1.22659e-07
-1.27265e-07
-1.2235e-07
-6.59056e-08
-1.21969e-07
-4.77514e-09
-1.2152e-07
5.61045e-08
-1.21017e-07
1.167e-07
-1.20457e-07
1.77031e-07
-1.19816e-07
2.36992e-07
-1.19103e-07
2.96497e-07
-1.183e-07
3.55596e-07
-1.17424e-07
4.14279e-07
-1.16536e-07
4.72534e-07
-1.15638e-07
5.30336e-07
-1.14704e-07
5.87639e-07
-1.13687e-07
6.44358e-07
-1.12506e-07
7.00343e-07
-1.11025e-07
7.55317e-07
-1.08981e-07
8.08783e-07
-1.05872e-07
8.59749e-07
-1.0057e-07
9.06674e-07
-9.07516e-08
9.46097e-07
-7.0506e-08
-2.1862e-08
9.79043e-07
9.21537e-09
-2.65305e-08
1.50491e-08
-2.96216e-08
1.71305e-08
-2.44781e-08
1.6473e-08
-1.81618e-08
1.37495e-08
-1.1733e-08
9.34932e-09
-5.41007e-09
3.47093e-09
7.08941e-10
-3.80382e-09
6.55499e-09
-1.2463e-08
1.20846e-08
-2.25407e-08
1.72838e-08
-3.41056e-08
2.21666e-08
-4.72451e-08
2.6776e-08
-6.20493e-08
3.1184e-08
-7.85956e-08
3.54844e-08
-9.69467e-08
3.97778e-08
-1.17151e-07
4.41568e-08
-1.39243e-07
4.86948e-08
-1.6325e-07
5.34387e-08
-1.89185e-07
5.84077e-08
-2.17038e-07
6.35941e-08
-2.4676e-07
6.897e-08
-2.7826e-07
7.44895e-08
-3.11415e-07
8.00899e-08
-3.46064e-07
8.56945e-08
-3.82016e-07
9.12165e-08
-4.19062e-07
9.65651e-08
-4.56988e-07
1.01652e-07
-4.95585e-07
1.064e-07
-5.34659e-07
1.10744e-07
-5.7403e-07
1.14638e-07
-6.13535e-07
1.18049e-07
-6.53038e-07
1.20958e-07
-6.92429e-07
1.23364e-07
-7.31616e-07
1.25274e-07
-7.70533e-07
1.26713e-07
-8.0914e-07
1.2772e-07
-8.47423e-07
1.28342e-07
-8.8538e-07
1.28624e-07
-9.23018e-07
1.28615e-07
-9.60348e-07
1.28361e-07
-9.97388e-07
1.27909e-07
-1.03416e-06
1.273e-07
-1.07068e-06
1.26574e-07
-1.10697e-06
1.25764e-07
-1.14305e-06
1.249e-07
-1.17894e-06
1.24008e-07
-1.21463e-06
1.23109e-07
-1.25014e-06
1.22219e-07
-1.28545e-06
1.21345e-07
-1.32057e-06
1.20492e-07
-1.35549e-06
1.19658e-07
-1.39021e-06
1.18841e-07
-1.42472e-06
1.18038e-07
-1.45904e-06
1.17242e-07
-1.49314e-06
1.16449e-07
-1.52702e-06
1.15651e-07
-1.56067e-06
1.14842e-07
-1.59409e-06
1.14014e-07
-1.62726e-06
1.1316e-07
-1.66015e-06
1.12272e-07
-1.69277e-06
1.11343e-07
-1.72509e-06
1.10366e-07
-1.75708e-06
1.09334e-07
-1.78873e-06
1.08239e-07
-1.82002e-06
1.07075e-07
-1.85091e-06
1.05837e-07
-1.88139e-06
1.04517e-07
-1.91142e-06
1.03111e-07
-1.94097e-06
1.01613e-07
-1.97002e-06
1.0002e-07
-1.99853e-06
9.83264e-08
-2.02647e-06
9.6529e-08
-2.0538e-06
9.46243e-08
-2.0805e-06
9.26095e-08
-2.10653e-06
9.04823e-08
-2.13185e-06
8.82407e-08
-2.15643e-06
8.58832e-08
-2.18023e-06
8.34087e-08
-2.20321e-06
8.08164e-08
-2.22534e-06
7.8106e-08
-2.24658e-06
7.52776e-08
-2.2669e-06
7.23314e-08
-2.28625e-06
6.92684e-08
-2.30461e-06
6.60893e-08
-2.32194e-06
6.27957e-08
-2.33821e-06
5.93891e-08
-2.35337e-06
5.58715e-08
-2.3674e-06
5.22448e-08
-2.38027e-06
4.85113e-08
-2.39194e-06
4.46732e-08
-2.40238e-06
4.07329e-08
-2.41158e-06
3.66932e-08
-2.41951e-06
3.25572e-08
-2.42613e-06
2.83286e-08
-2.43145e-06
2.40121e-08
-2.43543e-06
1.96134e-08
-2.43809e-06
1.51401e-08
-2.43941e-06
1.0602e-08
-2.4394e-06
6.01319e-09
-2.43806e-06
1.39422e-09
-2.43536e-06
-3.23338e-09
-2.43126e-06
-7.86809e-09
-2.42568e-06
-1.25341e-08
-2.4186e-06
-1.72453e-08
-2.41e-06
-2.19952e-08
-2.39984e-06
-2.67772e-08
-2.38813e-06
-3.1586e-08
-2.37486e-06
-3.64158e-08
-2.36001e-06
-4.12612e-08
-2.34358e-06
-4.6116e-08
-2.32558e-06
-5.09746e-08
-2.306e-06
-5.58305e-08
-2.28484e-06
-6.06779e-08
-2.26212e-06
-6.55104e-08
-2.23783e-06
-7.03222e-08
-2.21199e-06
-7.51068e-08
-2.18461e-06
-7.98583e-08
-2.15569e-06
-8.45703e-08
-2.12526e-06
-8.92372e-08
-2.09333e-06
-9.3853e-08
-2.05992e-06
-9.84121e-08
-2.02505e-06
-1.02908e-07
-1.98875e-06
-1.07334e-07
-1.95103e-06
-1.11684e-07
-1.91192e-06
-1.1595e-07
-1.87145e-06
-1.20128e-07
-1.82966e-06
-1.2421e-07
-1.78656e-06
-1.28191e-07
-1.74221e-06
-1.32066e-07
-1.69663e-06
-1.35832e-07
-1.64987e-06
-1.39484e-07
-1.60196e-06
-1.43021e-07
-1.55293e-06
-1.4644e-07
-1.50284e-06
-1.49737e-07
-1.45172e-06
-1.52899e-07
-1.39962e-06
-1.55917e-07
-1.34658e-06
-1.58795e-07
-1.29266e-06
-1.61535e-07
-1.2379e-06
-1.64128e-07
-1.18235e-06
-1.66567e-07
-1.12606e-06
-1.6885e-07
-1.06909e-06
-1.70974e-07
-1.01148e-06
-1.7294e-07
-9.53298e-07
-1.74746e-07
-8.94585e-07
-1.76391e-07
-8.35398e-07
-1.77875e-07
-7.7579e-07
-1.792e-07
-7.15812e-07
-1.80365e-07
-6.55516e-07
-1.81373e-07
-5.94955e-07
-1.82226e-07
-5.34178e-07
-1.82926e-07
-4.73235e-07
-1.83477e-07
-4.12173e-07
-1.83882e-07
-3.5104e-07
-1.84146e-07
-2.8988e-07
-1.84273e-07
-2.28737e-07
-1.84268e-07
-1.67652e-07
-1.84136e-07
-1.06665e-07
-1.83884e-07
-4.58109e-08
-1.83517e-07
1.48769e-08
-1.83042e-07
7.5364e-08
-1.8246e-07
1.35619e-07
-1.81779e-07
1.95608e-07
-1.81009e-07
2.55305e-07
-1.80158e-07
3.14709e-07
-1.79223e-07
3.73794e-07
-1.7819e-07
4.32534e-07
-1.77043e-07
4.90923e-07
-1.75816e-07
5.48936e-07
-1.74553e-07
6.0655e-07
-1.73255e-07
6.63731e-07
-1.71888e-07
7.2043e-07
-1.70389e-07
7.76565e-07
-1.68644e-07
8.31995e-07
-1.66457e-07
8.86482e-07
-1.63471e-07
9.39628e-07
-1.59021e-07
9.90806e-07
-1.51751e-07
1.03917e-06
-1.39121e-07
1.0842e-06
-1.15536e-07
-6.80655e-08
1.1304e-06
3.65166e-09
-3.01843e-08
2.5809e-09
-2.85532e-08
-1.11163e-09
-2.07871e-08
-6.57265e-09
-1.27019e-08
-1.34586e-08
-4.8481e-09
-2.16041e-08
2.73456e-09
-3.09452e-08
1.00491e-08
-4.14845e-08
1.70934e-08
-5.32691e-08
2.38682e-08
-6.63727e-08
3.03865e-08
-8.08844e-08
3.66774e-08
-9.6897e-08
4.27877e-08
-1.14495e-07
4.87808e-08
-1.33741e-07
5.473e-08
-1.54674e-07
6.07091e-08
-1.77299e-07
6.6781e-08
-2.01594e-07
7.29891e-08
-2.27508e-07
7.93518e-08
-2.54961e-07
8.58599e-08
-2.83847e-07
9.24786e-08
-3.14028e-07
9.91506e-08
-3.45344e-07
1.05804e-07
-3.77612e-07
1.12357e-07
-4.10641e-07
1.18722e-07
-4.44238e-07
1.24813e-07
-4.78223e-07
1.30549e-07
-5.12431e-07
1.35859e-07
-5.46722e-07
1.4069e-07
-5.8098e-07
1.45002e-07
-6.15113e-07
1.48769e-07
-6.49049e-07
1.51984e-07
-6.82742e-07
1.5465e-07
-7.16167e-07
1.56788e-07
-7.49321e-07
1.58427e-07
-7.82218e-07
1.59609e-07
-8.14879e-07
1.60381e-07
-8.47331e-07
1.60792e-07
-8.79599e-07
1.60891e-07
-9.11712e-07
1.60727e-07
-9.43698e-07
1.60345e-07
-9.75578e-07
1.59788e-07
-1.00737e-06
1.59094e-07
-1.0391e-06
1.58298e-07
-1.07077e-06
1.57431e-07
-1.10238e-06
1.56516e-07
-1.13395e-06
1.55575e-07
-1.16547e-06
1.54624e-07
-1.19692e-06
1.53675e-07
-1.22831e-06
1.52735e-07
-1.25963e-06
1.51807e-07
-1.29086e-06
1.50889e-07
-1.322e-06
1.4998e-07
-1.35304e-06
1.49075e-07
-1.38397e-06
1.48167e-07
-1.41477e-06
1.47251e-07
-1.44544e-06
1.46318e-07
-1.47596e-06
1.4536e-07
-1.50631e-06
1.44369e-07
-1.53649e-06
1.43336e-07
-1.56647e-06
1.42251e-07
-1.59624e-06
1.41106e-07
-1.62576e-06
1.39893e-07
-1.65503e-06
1.38602e-07
-1.68402e-06
1.37226e-07
-1.71271e-06
1.35756e-07
-1.74105e-06
1.34185e-07
-1.76904e-06
1.32505e-07
-1.79665e-06
1.30711e-07
-1.82383e-06
1.28795e-07
-1.85056e-06
1.26753e-07
-1.87682e-06
1.24578e-07
-1.90256e-06
1.22267e-07
-1.92775e-06
1.19815e-07
-1.95236e-06
1.17218e-07
-1.97635e-06
1.14475e-07
-1.99969e-06
1.11581e-07
-2.02235e-06
1.08535e-07
-2.04427e-06
1.05337e-07
-2.06544e-06
1.01984e-07
-2.08581e-06
9.84768e-08
-2.10535e-06
9.48154e-08
-2.12402e-06
9.10002e-08
-2.14179e-06
8.70323e-08
-2.15861e-06
8.29132e-08
-2.17446e-06
7.86445e-08
-2.18931e-06
7.42288e-08
-2.2031e-06
6.96687e-08
-2.21583e-06
6.49672e-08
-2.22744e-06
6.01275e-08
-2.23792e-06
5.51534e-08
-2.24724e-06
5.00488e-08
-2.25536e-06
4.48182e-08
-2.26228e-06
3.94668e-08
-2.26795e-06
3.40007e-08
-2.27237e-06
2.84266e-08
-2.27551e-06
2.27529e-08
-2.27736e-06
1.69889e-08
-2.2779e-06
1.11455e-08
-2.27713e-06
5.23534e-09
-2.27501e-06
-7.2795e-10
-2.27151e-06
-6.73502e-09
-2.26659e-06
-1.27887e-08
-2.26023e-06
-1.89007e-08
-2.25241e-06
-2.50743e-08
-2.2431e-06
-3.13026e-08
-2.23231e-06
-3.75765e-08
-2.22001e-06
-4.38881e-08
-2.2062e-06
-5.02288e-08