/*--------------------------------*- C++ -*----------------------------------*\
| =========                 |                                                 |
| \\      /  F ield         | OpenFOAM: The Open Source CFD Toolbox           |
|  \\    /   O peration     | Version:  2406                                  |
|   \\  /    A nd           | Website:  www.openfoam.com                      |
|    \\/     M anipulation  |                                                 |
\*---------------------------------------------------------------------------*/
FoamFile
{
    version     2.0;
    format      ascii;
    arch        "LSB;label=32;scalar=64";
    class       volVectorField;
    location    "281";
    object      U;
}
// * * * * * * * * * * * * * * * * * * * * * * * * * * * * * * * * * * * * * //

dimensions      [0 1 -1 0 0 0 0];

internalField   nonuniform List<vector> 
12225
(
(9.84026 -0.956929 0)
(9.59659 -0.890303 0)
(9.31634 -0.596465 0)
(9.01457 -0.371729 0)
(8.72553 -0.227359 0)
(8.46697 -0.139076 0)
(8.23982 -0.0853792 0)
(8.04167 -0.0524021 0)
(7.86961 -0.0319975 0)
(7.7206 -0.019161 0)
(7.59146 -0.011131 0)
(7.47913 -0.00611532 0)
(7.38141 -0.00305206 0)
(7.29634 -0.00128887 0)
(7.22222 -0.000361585 0)
(7.16004 -0.000697415 0)
(7.10026 0.00246588 0)
(7.07187 -0.0180387 0)
(10.0713 0.254377 0)
(10.1823 0.418426 0)
(10.2289 0.383662 0)
(10.2294 0.310045 0)
(10.2114 0.245429 0)
(10.1794 0.19521 0)
(10.1334 0.157449 0)
(10.0758 0.129477 0)
(10.0105 0.108683 0)
(9.94088 0.0929363 0)
(9.86927 0.0807809 0)
(9.79744 0.0711828 0)
(9.72649 0.0634023 0)
(9.65755 0.0569632 0)
(9.59102 0.0512238 0)
(9.52784 0.0466464 0)
(9.46852 0.0401764 0)
(9.41523 0.0403663 0)
(10.0041 0.0591977 0)
(10.0285 0.048731 0)
(10.0619 0.0103602 0)
(10.0897 0.000321824 0)
(10.1152 0.00844609 0)
(10.1377 0.019658 0)
(10.1547 0.0292087 0)
(10.1657 0.0366589 0)
(10.1715 0.0421912 0)
(10.173 0.0460288 0)
(10.1711 0.0484713 0)
(10.1663 0.0498245 0)
(10.1591 0.0503223 0)
(10.1502 0.0501148 0)
(10.1401 0.049241 0)
(10.1291 0.0477014 0)
(10.1183 0.045235 0)
(10.1062 0.0404881 0)
(9.99764 0.010938 0)
(10.0088 0.0257992 0)
(10.0342 0.0385848 0)
(10.0554 0.0535949 0)
(10.0721 0.0650781 0)
(10.0875 0.0704005 0)
(10.1015 0.0715374 0)
(10.1134 0.0707673 0)
(10.1236 0.0691754 0)
(10.1326 0.0671947 0)
(10.1404 0.0650156 0)
(10.1473 0.0627636 0)
(10.1532 0.0604601 0)
(10.1585 0.058085 0)
(10.1631 0.0555037 0)
(10.1674 0.0525784 0)
(10.1713 0.0488321 0)
(10.1742 0.043168 0)
(9.99927 0.00740941 0)
(10.0087 0.0338052 0)
(10.0279 0.0483746 0)
(10.0436 0.0549461 0)
(10.0558 0.0584101 0)
(10.0678 0.0595929 0)
(10.0793 0.0593609 0)
(10.0897 0.0586153 0)
(10.0991 0.0577182 0)
(10.1077 0.0567077 0)
(10.1157 0.0555719 0)
(10.1232 0.054307 0)
(10.1302 0.0528905 0)
(10.1369 0.051266 0)
(10.1434 0.0493166 0)
(10.1495 0.0468861 0)
(10.1553 0.0436581 0)
(10.1605 0.0393263 0)
(10.0003 0.00955551 0)
(10.0085 0.0330149 0)
(10.0235 0.0439942 0)
(10.0369 0.0483792 0)
(10.0477 0.0518651 0)
(10.0585 0.0542736 0)
(10.069 0.0553108 0)
(10.0785 0.0554757 0)
(10.0871 0.0551635 0)
(10.0951 0.0545067 0)
(10.1026 0.0535582 0)
(10.1097 0.0523613 0)
(10.1165 0.0509276 0)
(10.1231 0.0492281 0)
(10.1294 0.0471795 0)
(10.1354 0.0446634 0)
(10.1411 0.0415151 0)
(10.1462 0.0376111 0)
(10.0004 0.00934718 0)
(10.0074 0.0285641 0)
(10.02 0.0388062 0)
(10.0322 0.0439774 0)
(10.0425 0.0481114 0)
(10.0525 0.0509286 0)
(10.0622 0.0521823 0)
(10.0711 0.0524213 0)
(10.0793 0.0521121 0)
(10.0868 0.0514307 0)
(10.094 0.0504469 0)
(10.1008 0.0492063 0)
(10.1073 0.0477249 0)
(10.1136 0.0459772 0)
(10.1196 0.0439011 0)
(10.1253 0.0414104 0)
(10.1306 0.0384177 0)
(10.1354 0.0348829 0)
(10.0004 0.00828767 0)
(10.0063 0.0246732 0)
(10.0171 0.0348196 0)
(10.0283 0.0404802 0)
(10.0381 0.0445839 0)
(10.0475 0.0473107 0)
(10.0566 0.0485993 0)
(10.0652 0.0489208 0)
(10.073 0.04869 0)
(10.0804 0.0480746 0)
(10.0873 0.047143 0)
(10.0939 0.045938 0)
(10.1002 0.0444783 0)
(10.1062 0.0427469 0)
(10.1119 0.0407038 0)
(10.1173 0.0382956 0)
(10.1223 0.0354861 0)
(10.1267 0.0322911 0)
(10.0004 0.00729531 0)
(10.0053 0.0215632 0)
(10.0146 0.0312352 0)
(10.0248 0.0369135 0)
(10.034 0.0408258 0)
(10.0429 0.0434637 0)
(10.0516 0.0448353 0)
(10.0598 0.0452819 0)
(10.0675 0.0451531 0)
(10.0746 0.0446149 0)
(10.0814 0.0437406 0)
(10.0878 0.0425756 0)
(10.0939 0.0411445 0)
(10.0997 0.0394432 0)
(10.1052 0.0374524 0)
(10.1103 0.0351476 0)
(10.115 0.0325257 0)
(10.1192 0.0296324 0)
(10.0004 0.0064232 0)
(10.0046 0.0188211 0)
(10.0125 0.0277388 0)
(10.0216 0.0332691 0)
(10.0303 0.0370218 0)
(10.0387 0.0395805 0)
(10.0469 0.041003 0)
(10.0548 0.0415388 0)
(10.0622 0.041485 0)
(10.0692 0.0410073 0)
(10.0758 0.0401836 0)
(10.082 0.0390619 0)
(10.088 0.0376718 0)
(10.0936 0.0360214 0)
(10.0989 0.0341081 0)
(10.1038 0.03193 0)
(10.1083 0.0295029 0)
(10.1123 0.0268857 0)
(10.0004 0.00561593 0)
(10.0039 0.0163276 0)
(10.0107 0.0243935 0)
(10.0189 0.0296731 0)
(10.0269 0.0332493 0)
(10.0348 0.0356877 0)
(10.0426 0.0370994 0)
(10.0501 0.0376792 0)
(10.0573 0.0376748 0)
(10.064 0.0372441 0)
(10.0704 0.0364676 0)
(10.0765 0.0353944 0)
(10.0823 0.0340582 0)
(10.0877 0.0324768 0)
(10.0928 0.0306611 0)
(10.0975 0.0286243 0)
(10.1018 0.0263927 0)
(10.1057 0.0240293 0)
(10.0003 0.00490161 0)
(10.0034 0.0142144 0)
(10.0093 0.0214753 0)
(10.0167 0.0264345 0)
(10.0242 0.0298075 0)
(10.0316 0.0321001 0)
(10.039 0.0334594 0)
(10.0461 0.0340469 0)
(10.053 0.0340684 0)
(10.0595 0.0336699 0)
(10.0657 0.0329319 0)
(10.0716 0.0319048 0)
(10.0772 0.0306253 0)
(10.0825 0.0291184 0)
(10.0874 0.0274038 0)
(10.0919 0.0255037 0)
(10.0961 0.0234487 0)
(10.0999 0.0213014 0)
(10.0003 0.00423696 0)
(10.003 0.0122846 0)
(10.0082 0.0187189 0)
(10.0148 0.0232741 0)
(10.0217 0.0264051 0)
(10.0287 0.0285285 0)
(10.0357 0.0298053 0)
(10.0425 0.0303747 0)
(10.0491 0.0304061 0)
(10.0554 0.0300305 0)
(10.0614 0.0293269 0)
(10.0671 0.0283465 0)
(10.0725 0.0271282 0)
(10.0775 0.0257019 0)
(10.0823 0.0240932 0)
(10.0866 0.0223299 0)
(10.0907 0.0204432 0)
(10.0943 0.018495 0)
(10.0003 0.00354493 0)
(10.0026 0.0102684 0)
(10.0071 0.015758 0)
(10.0129 0.0197725 0)
(10.0193 0.0225686 0)
(10.0258 0.0244588 0)
(10.0323 0.0256007 0)
(10.0387 0.0261138 0)
(10.045 0.0261324 0)
(10.051 0.0257688 0)
(10.0567 0.0250976 0)
(10.0622 0.0241696 0)
(10.0674 0.0230245 0)
(10.0723 0.0216952 0)
(10.0768 0.020211 0)
(10.081 0.0186024 0)
(10.0849 0.0168995 0)
(10.0884 0.01516 0)
(10.0002 0.00282208 0)
(10.0022 0.00816594 0)
(10.0061 0.012604 0)
(10.0112 0.0159376 0)
(10.0169 0.0182872 0)
(10.0229 0.0198647 0)
(10.029 0.0208065 0)
(10.035 0.0212129 0)
(10.0409 0.0211862 0)
(10.0466 0.0208173 0)
(10.0521 0.0201728 0)
(10.0573 0.0193008 0)
(10.0622 0.0182399 0)
(10.0669 0.0170232 0)
(10.0712 0.0156807 0)
(10.0752 0.0142426 0)
(10.0789 0.0127358 0)
(10.0824 0.011212 0)
(10.0002 0.00206874 0)
(10.0019 0.00598206 0)
(10.0052 0.00926818 0)
(10.0097 0.0117784 0)
(10.0148 0.0135535 0)
(10.0203 0.0147213 0)
(10.0258 0.0153842 0)
(10.0314 0.0156201 0)
(10.037 0.0155035 0)
(10.0424 0.0151028 0)
(10.0475 0.0144727 0)
(10.0525 0.0136553 0)
(10.0572 0.0126848 0)
(10.0616 0.0115917 0)
(10.0657 0.0104035 0)
(10.0696 0.00914684 0)
(10.0732 0.00784401 0)
(10.0765 0.00653946 0)
(10.0002 0.0012833 0)
(10.0016 0.00370522 0)
(10.0045 0.00573728 0)
(10.0084 0.00728227 0)
(10.013 0.00834452 0)
(10.018 0.00898996 0)
(10.0231 0.00928225 0)
(10.0283 0.00927337 0)
(10.0335 0.0090119 0)
(10.0386 0.00854366 0)
(10.0435 0.00790776 0)
(10.0482 0.00713604 0)
(10.0526 0.00625546 0)
(10.0568 0.00529004 0)
(10.0608 0.00426167 0)
(10.0645 0.00319121 0)
(10.0679 0.00209479 0)
(10.0712 0.00100858 0)
(10.0002 0.000450271 0)
(10.0014 0.00128457 0)
(10.004 0.00193942 0)
(10.0075 0.00236894 0)
(10.0117 0.00256898 0)
(10.0163 0.00256382 0)
(10.0211 0.0023794 0)
(10.026 0.00203934 0)
(10.0309 0.00156713 0)
(10.0357 0.000985517 0)
(10.0404 0.00031467 0)
(10.0448 -0.000427938 0)
(10.0491 -0.00122667 0)
(10.0531 -0.00206698 0)
(10.0569 -0.00293536 0)
(10.0605 -0.00381865 0)
(10.0639 -0.00470759 0)
(10.067 -0.00557489 0)
(10.0001 -0.000473449 0)
(10.0014 -0.00140324 0)
(10.0038 -0.0023028 0)
(10.0072 -0.0031619 0)
(10.0112 -0.00397841 0)
(10.0156 -0.00476264 0)
(10.0202 -0.00552867 0)
(10.025 -0.006284 0)
(10.0297 -0.00703123 0)
(10.0343 -0.00777231 0)
(10.0389 -0.0085091 0)
(10.0432 -0.00924224 0)
(10.0473 -0.00997097 0)
(10.0513 -0.0106934 0)
(10.055 -0.011407 0)
(10.0585 -0.0121083 0)
(10.0618 -0.0127957 0)
(10.0649 -0.0134521 0)
(10.0002 -0.00134812 0)
(10.0014 -0.00395785 0)
(10.004 -0.00634808 0)
(10.0075 -0.00843532 0)
(10.0117 -0.0102072 0)
(10.0163 -0.0117181 0)
(10.021 -0.0130239 0)
(10.0259 -0.014159 0)
(10.0307 -0.0151515 0)
(10.0354 -0.0160307 0)
(10.0399 -0.0168216 0)
(10.0443 -0.0175424 0)
(10.0484 -0.0182061 0)
(10.0524 -0.0188225 0)
(10.0561 -0.0193992 0)
(10.0596 -0.019941 0)
(10.0629 -0.0204527 0)
(10.066 -0.0209254 0)
(10.0002 -0.00208963 0)
(10.0016 -0.00615851 0)
(10.0044 -0.00984844 0)
(10.0083 -0.0129419 0)
(10.0129 -0.0154441 0)
(10.0177 -0.0175048 0)
(10.0227 -0.0192218 0)
(10.0278 -0.0206346 0)
(10.0328 -0.0217882 0)
(10.0376 -0.0227404 0)
(10.0423 -0.02354 0)
(10.0467 -0.0242218 0)
(10.051 -0.024811 0)
(10.055 -0.0253275 0)
(10.0588 -0.0257866 0)
(10.0623 -0.0261994 0)
(10.0656 -0.026575 0)
(10.0688 -0.0269103 0)
(10.0002 -0.00277566 0)
(10.0017 -0.00829818 0)
(10.0049 -0.0133155 0)
(10.0094 -0.0173241 0)
(10.0145 -0.0204001 0)
(10.0198 -0.0228744 0)
(10.0251 -0.0248995 0)
(10.0305 -0.0265153 0)
(10.0357 -0.0277823 0)
(10.0408 -0.0287789 0)
(10.0456 -0.0295671 0)
(10.0502 -0.030192 0)
(10.0546 -0.0306901 0)
(10.0586 -0.0310919 0)
(10.0625 -0.0314209 0)
(10.0661 -0.0316939 0)
(10.0695 -0.0319238 0)
(10.0726 -0.0321106 0)
(10.0001 -0.00338821 0)
(10.0017 -0.0104129 0)
(10.0055 -0.0167628 0)
(10.0109 -0.0215991 0)
(10.0166 -0.0252205 0)
(10.0223 -0.0280786 0)
(10.028 -0.0303002 0)
(10.0337 -0.0319697 0)
(10.0393 -0.0332306 0)
(10.0445 -0.0342012 0)
(10.0496 -0.0349467 0)
(10.0543 -0.0355113 0)
(10.0588 -0.0359357 0)
(10.063 -0.0362552 0)
(10.0669 -0.0364962 0)
(10.0706 -0.0366774 0)
(10.074 -0.0368137 0)
(10.0772 -0.0369109 0)
(10.0001 -0.00388712 0)
(10.0017 -0.0128951 0)
(10.0061 -0.0202955 0)
(10.0124 -0.0253555 0)
(10.0188 -0.0294167 0)
(10.025 -0.032881 0)
(10.0312 -0.0354814 0)
(10.0373 -0.0372483 0)
(10.0431 -0.0384471 0)
(10.0486 -0.039279 0)
(10.0538 -0.0398419 0)
(10.0587 -0.040201 0)
(10.0633 -0.0404151 0)
(10.0676 -0.040532 0)
(10.0716 -0.0405844 0)
(10.0754 -0.0405939 0)
(10.0789 -0.040574 0)
(10.0821 -0.0405217 0)
(9.99983 -0.0035867 0)
(10.0013 -0.016491 0)
(10.007 -0.0254713 0)
(10.0141 -0.0296576 0)
(10.0207 -0.0329908 0)
(10.0273 -0.0364501 0)
(10.0342 -0.0393837 0)
(10.0409 -0.0415604 0)
(10.0473 -0.04314 0)
(10.0532 -0.0442699 0)
(10.0588 -0.0450308 0)
(10.064 -0.0454973 0)
(10.0689 -0.0457462 0)
(10.0734 -0.0458424 0)
(10.0776 -0.0458333 0)
(10.0815 -0.0457523 0)
(10.0852 -0.0456251 0)
(10.0886 -0.0454622 0)
(9.99835 -7.72936e-05 0)
(9.99822 -0.0174489 0)
(10.0068 -0.0314595 0)
(10.0162 -0.0375698 0)
(10.0234 -0.0402771 0)
(10.0303 -0.0418313 0)
(10.0379 -0.0427869 0)
(10.0455 -0.04348 0)
(10.0527 -0.0440777 0)
(10.0594 -0.0445883 0)
(10.0657 -0.0449786 0)
(10.0716 -0.0452603 0)
(10.0771 -0.0454557 0)
(10.0821 -0.0455925 0)
(10.0868 -0.0456851 0)
(10.0911 -0.0457499 0)
(10.0951 -0.0457919 0)
(10.0988 -0.0457795 0)
(9.99422 0.00249355 0)
(9.99011 -0.00742837 0)
(10.0032 -0.0229256 0)
(10.0185 -0.039729 0)
(10.0302 -0.0531071 0)
(10.0404 -0.0608726 0)
(10.0501 -0.0644015 0)
(10.0593 -0.0656435 0)
(10.0678 -0.0657256 0)
(10.0756 -0.0650954 0)
(10.083 -0.0640352 0)
(10.0897 -0.0627348 0)
(10.0959 -0.0613571 0)
(10.1016 -0.0599825 0)
(10.1067 -0.0586761 0)
(10.1114 -0.057467 0)
(10.1157 -0.0563811 0)
(10.1196 -0.0553709 0)
(9.99443 -0.0305958 0)
(9.99463 -0.0135125 0)
(10.0087 0.0213847 0)
(10.0272 0.0319183 0)
(10.047 0.0240547 0)
(10.0668 0.0115316 0)
(10.085 -0.000172794 0)
(10.1007 -0.0103771 0)
(10.114 -0.0190072 0)
(10.1251 -0.0260715 0)
(10.1344 -0.0316645 0)
(10.1418 -0.036029 0)
(10.1476 -0.0393961 0)
(10.152 -0.0419832 0)
(10.155 -0.0439536 0)
(10.1569 -0.0454764 0)
(10.1579 -0.0466812 0)
(10.1579 -0.0477129 0)
(10.0367 -0.208939 0)
(10.107 -0.36601 0)
(10.1425 -0.352639 0)
(10.1567 -0.297972 0)
(10.1697 -0.247576 0)
(10.182 -0.206751 0)
(10.1884 -0.174318 0)
(10.1867 -0.148955 0)
(10.1774 -0.129238 0)
(10.1619 -0.113715 0)
(10.1414 -0.101318 0)
(10.1169 -0.0912885 0)
(10.0894 -0.0830951 0)
(10.0598 -0.0763319 0)
(10.0288 -0.0707185 0)
(9.99693 -0.0660748 0)
(9.96473 -0.0622508 0)
(9.93285 -0.0595479 0)
(9.92843 0.765812 0)
(9.84047 0.742588 0)
(9.705 0.524938 0)
(9.52633 0.349226 0)
(9.3318 0.228041 0)
(9.1406 0.147288 0)
(8.9588 0.0938347 0)
(8.78891 0.0582018 0)
(8.63232 0.0343038 0)
(8.48967 0.0182596 0)
(8.36032 0.00757228 0)
(8.24346 0.00057543 0)
(8.13792 -0.003988 0)
(8.04264 -0.00685455 0)
(7.9565 -0.00854321 0)
(7.87853 -0.00949013 0)
(7.80737 -0.0099795 0)
(7.74265 -0.0105979 0)
(0.00230917 -0.00409236 -8.48682e-19)
(0.0104619 -0.0113518 7.42561e-19)
(0.0216865 -0.0160161 0)
(0.0339921 -0.0174598 0)
(0.045221 -0.0163539 0)
(0.054415 -0.013749 -4.17416e-19)
(0.0612318 -0.010491 0)
(0.0656191 -0.00710296 0)
(0.0677232 -0.00387685 0)
(0.0676394 -0.001013 0)
(0.0656858 0.00132315 3.74888e-19)
(0.0622924 0.00308348 0)
(0.057755 0.00435846 0)
(0.0522937 0.00530767 0)
(0.0460444 0.00609692 0)
(0.039052 0.00686644 4.11974e-19)
(0.0312912 0.00772059 0)
(0.0226947 0.0087223 0)
(0.0131658 0.00986811 0)
(0.00257857 0.0110455 0)
(-0.00918695 0.0120861 0)
(-0.0223013 0.0130311 0)
(-0.0369349 0.0140394 0)
(-0.0532297 0.0151924 3.41647e-19)
(-0.0713308 0.0165233 -3.10041e-19)
(-0.0913715 0.0180456 2.81474e-19)
(-0.113462 0.0197569 2.55723e-19)
(-0.137684 0.0216354 0)
(-0.164083 0.023633 0)
(-0.192649 0.0256736 -1.93378e-19)
(-0.223308 0.0276749 -1.76982e-19)
(-0.255958 0.0295851 0)
(-0.290455 0.0313621 0)
(-0.326635 0.0329697 -1.38354e-19)
(-0.364313 0.034378 0)
(-0.40329 0.0355677 0)
(-0.443364 0.0365296 1.11749e-19)
(-0.48433 0.0372635 0)
(-0.525996 0.0377773 9.86997e-20)
(-0.568183 0.0380849 1.86474e-19)
(-0.610727 0.0382043 0)
(-0.653483 0.0381557 0)
(-0.696321 0.0379607 0)
(-0.739135 0.0376432 0)
(-0.781846 0.0372313 0)
(-0.824396 0.0367598 1.40941e-19)
(-0.866725 0.0362694 1.35673e-19)
(-0.908776 0.0357971 1.30838e-19)
(-0.950617 0.0353553 0)
(-0.99226 0.0349324 -1.223e-19)
(-1.03371 0.0345251 0)
(-1.07498 0.0341313 1.15009e-19)
(-1.11607 0.0337498 1.11745e-19)
(-1.15699 0.0333793 0)
(-1.19775 0.0330183 0)
(-1.23835 0.0326652 0)
(-1.27879 0.0323182 1.00671e-19)
(-1.31907 0.0319753 0)
(-1.35919 0.0316344 0)
(-1.39915 0.0312931 0)
(-1.43892 0.0309492 0)
(-1.47851 0.0306004 0)
(-1.5179 0.0302445 0)
(-1.55707 0.0298793 0)
(-1.59601 0.0295028 0)
(-1.63468 0.0291132 -8.32828e-20)
(-1.67307 0.0287087 0)
(-1.71115 0.0282878 0)
(-1.74889 0.027849 7.89287e-20)
(-1.78626 0.027391 7.75875e-20)
(-1.82322 0.0269129 0)
(-1.85975 0.0264137 -7.50454e-20)
(-1.8958 0.0258925 7.38373e-20)
(-1.93133 0.0253489 0)
(-1.96632 0.0247824 -7.15304e-20)
(-2.0007 0.0241927 0)
(-2.03446 0.0235798 0)
(-2.06753 0.0229435 6.82986e-20)
(-2.09988 0.0222842 0)
(-2.13147 0.0216018 -6.62652e-20)
(-2.16226 0.0208969 0)
(-2.19219 0.0201696 6.43062e-20)
(-2.22122 0.0194207 6.3349e-20)
(-2.24932 0.0186504 6.24037e-20)
(-2.27643 0.0178595 1.22937e-19)
(-2.30251 0.0170485 -1.21083e-19)
(-2.32753 0.0162181 0)
(-2.35143 0.0153685 0)
(-2.37417 0.0144999 0)
(-2.39572 0.0136119 -1.13752e-19)
(-2.41603 0.0127037 -1.11923e-19)
(-2.43505 0.0117738 1.1009e-19)
(-2.45275 0.0108195 0)
(-2.46908 0.00983687 -1.06396e-19)
(-2.48398 0.00881981 -1.0453e-19)
(-2.49741 0.00776028 -1.02649e-19)
(-2.5093 0.00664811 0)
(-2.51959 0.00547303 0)
(-2.52819 0.00423304 0)
(-2.53503 0.00295323 -9.49342e-20)
(-2.54001 0.00170103 0)
(-2.54298 0.000563277 0)
(-2.54406 -0.000419078 8.88611e-20)
(-2.54363 -0.00131189 0)
(-2.54163 -0.00218501 0)
(-2.5381 -0.00304864 8.23469e-20)
(-2.53301 -0.00390793 0)
(-2.52636 -0.0047635 0)
(-2.51815 -0.00561495 -7.53516e-20)
(-2.50835 -0.00646199 -7.29002e-20)
(-2.49698 -0.0073036 0)
(-2.48401 -0.00813938 6.7802e-20)
(-2.46945 -0.00896824 0)
(-2.4533 -0.0097898 -6.24249e-20)
(-2.43555 -0.010603 0)
(-2.41621 -0.0114075 -5.67461e-20)
(-2.39528 -0.0122023 -5.37861e-20)
(-2.37278 -0.0129871 0)
(-2.34869 -0.0137609 0)
(-2.32305 -0.0145237 0)
(-2.29585 -0.0152745 0)
(-2.26712 -0.0160129 0)
(-2.23687 -0.0167379 0)
(-2.20512 -0.0174492 0)
(-2.17188 -0.0181456 -2.67708e-20)
(-2.13718 -0.0188272 2.29197e-20)
(-2.10104 -0.0194933 0)
(-2.06349 -0.0201442 0)
(-2.02456 -0.0207795 0)
(-1.98428 -0.0214001 0)
(-1.94267 -0.0220059 3.51407e-21)
(-1.89977 -0.0225969 0)
(-1.85561 -0.0231709 1.54167e-20)
(-1.81021 -0.0237288 -2.53668e-20)
(-1.76364 -0.0242692 0)
(-1.71591 -0.0247936 0)
(-1.66708 -0.0253043 0)
(-1.61719 -0.0257985 6.87951e-20)
(-1.56627 -0.0262748 8.06573e-20)
(-1.51437 -0.0267347 0)
(-1.46154 -0.0271775 1.0575e-19)
(-1.40783 -0.0276038 1.19035e-19)
(-1.35328 -0.0280139 -1.32851e-19)
(-1.29795 -0.0284078 0)
(-1.24188 -0.0287861 0)
(-1.18511 -0.0291491 -1.77839e-19)
(-1.1277 -0.0294974 0)
(-1.0697 -0.0298315 0)
(-1.01116 -0.0301521 0)
(-0.952119 -0.03046 0)
(-0.89263 -0.0307559 2.67234e-19)
(-0.83274 -0.0310407 2.87774e-19)
(-0.772494 -0.0313154 0)
(-0.711937 -0.031581 3.32096e-19)
(-0.651113 -0.0318387 0)
(-0.590064 -0.0320896 0)
(-0.52883 -0.0323351 4.08148e-19)
(-0.46745 -0.0325764 0)
(-0.405962 -0.0328148 4.66666e-19)
(-0.344404 -0.0330504 0)
(-0.282809 -0.0332843 0)
(-0.221217 -0.0335193 5.69545e-19)
(-0.159658 -0.0337754 0)
(-0.0981646 -0.0340523 6.50981e-19)
(-0.0368119 -0.0342713 0)
(0.0243893 -0.0339401 0)
(0.0854418 -0.0330387 0)
(0.146299 -0.03209 -6.802e-19)
(0.206915 -0.0311926 0)
(0.267272 -0.030343 6.50456e-19)
(0.327365 -0.0295291 0)
(0.387172 -0.0287356 0)
(0.44664 -0.0279418 0)
(0.505647 -0.027116 0)
(0.564015 -0.0262005 0)
(0.621169 -0.025086 0)
(0.676837 -0.0235148 0)
(0.726466 -0.0208505 -1.13815e-18)
(0.775518 -0.0157917 0)
(0.77501 0.000856297 0)
(0.00526819 -0.0223363 2.07222e-18)
(0.0164798 -0.0359572 -1.27746e-18)
(0.0251721 -0.0370554 0)
(0.0312089 -0.0331939 4.04484e-19)
(0.03499 -0.0271341 0)
(0.0367116 -0.0201514 1.55329e-19)
(0.036605 -0.0130109 -2.934e-19)
(0.0348539 -0.00617672 -2.84133e-19)
(0.0315808 8.56855e-05 0)
(0.0269224 0.0056086 -2.75133e-19)
(0.0208924 0.0103032 -1.37051e-19)
(0.0134542 0.0142087 0)
(0.00459882 0.0174839 0)
(-0.00568761 0.0203403 0)
(-0.0174266 0.022999 0)
(-0.0306513 0.0256526 -1.25448e-19)
(-0.0454146 0.0284425 0)
(-0.0617951 0.0314571 2.32095e-19)
(-0.0798977 0.0347375 0)
(-0.0998236 0.0382969 0)
(-0.121626 0.0421296 -2.05846e-19)
(-0.145336 0.0462289 0)
(-0.171008 0.050596 1.89512e-19)
(-0.198681 0.0552072 -9.08645e-20)
(-0.228341 0.060003 8.69038e-20)
(-0.259928 0.0648926 -8.30036e-20)
(-0.293335 0.0697652 -7.91814e-20)
(-0.32841 0.0745054 0)
(-0.364965 0.0790129 0)
(-0.402791 0.0832113 6.83382e-20)
(-0.441691 0.0870252 -6.48441e-20)
(-0.481473 0.0903839 0)
(-0.521936 0.0932467 0)
(-0.562889 0.095597 5.63724e-20)
(-0.604155 0.0974345 0)
(-0.645573 0.0987619 0)
(-0.687001 0.0996038 -4.94712e-20)
(-0.728326 0.100004 0)
(-0.769455 0.100012 4.55906e-20)
(-0.81032 0.0996814 -8.81401e-20)
(-0.850873 0.0990652 0)
(-0.891083 0.0982155 0)
(-0.930936 0.0971811 -1.59117e-19)
(-0.970428 0.0960061 -1.54319e-19)
(-1.00957 0.0947315 -1.49875e-19)
(-1.04839 0.0933979 7.27466e-20)
(-1.08689 0.0920486 -7.10873e-20)
(-1.12509 0.0907232 -2.07628e-19)
(-1.16301 0.089441 1.34971e-19)
(-1.20063 0.0882003 6.6043e-20)
(-1.23798 0.086997 0)
(-1.27505 0.0858279 -6.31561e-20)
(-1.31185 0.0846888 6.15515e-20)
(-1.3484 0.0835757 0)
(-1.3847 0.0824841 0)
(-1.42074 0.0814091 0)
(-1.45653 0.0803459 -5.71556e-20)
(-1.49206 0.0792892 0)
(-1.52733 0.078234 1.09972e-19)
(-1.56233 0.0771752 0)
(-1.59704 0.0761077 1.06243e-19)
(-1.63146 0.0750266 0)
(-1.66557 0.0739273 -1.02792e-19)
(-1.69935 0.0728056 0)
(-1.73277 0.0716575 9.95782e-20)
(-1.76583 0.0704792 -4.88901e-20)
(-1.79849 0.0692676 0)
(-1.83073 0.0680198 -9.51246e-20)
(-1.86252 0.0667333 -4.69901e-20)
(-1.89384 0.0654059 -4.6305e-20)
(-1.92466 0.064036 0)
(-1.95493 0.0626218 -4.47386e-20)
(-1.98465 0.0611626 -4.43408e-20)
(-2.01376 0.0596575 0)
(-2.04225 0.0581061 4.30932e-20)
(-2.07006 0.0565082 -8.47491e-20)
(-2.09718 0.0548642 0)
(-2.12357 0.0531744 -4.12896e-20)
(-2.14919 0.0514397 0)
(-2.17401 0.0496608 1.20166e-19)
(-2.19799 0.0478391 0)
(-2.22109 0.0459755 -1.16717e-19)
(-2.24329 0.0440717 -3.83889e-20)
(-2.26454 0.0421291 3.76598e-20)
(-2.28482 0.0401496 7.41914e-20)
(-2.30409 0.0381347 -7.30619e-20)
(-2.32231 0.0360866 0)
(-2.33945 0.0340068 0)
(-2.35548 0.0318972 0)
(-2.37036 0.0297591 2.05871e-19)
(-2.38407 0.0275934 6.75032e-20)
(-2.39657 0.0254013 -6.63086e-20)
(-2.40784 0.0231834 0)
(-2.41784 0.0209398 -6.37845e-20)
(-2.42656 0.0186701 6.26422e-20)
(-2.43396 0.0163734 6.13885e-20)
(-2.44005 0.0140478 0)
(-2.44482 0.0116882 0)
(-2.44828 0.00928752 0)
(-2.45048 0.00684941 5.61939e-20)
(-2.45149 0.00441262 0)
(-2.45143 0.00205584 -1.07013e-19)
(-2.45026 -0.000161867 -1.56233e-19)
(-2.44765 -0.00228292 1.01336e-19)
(-2.44358 -0.00436713 0)
(-2.43799 -0.00642552 4.78363e-20)
(-2.43089 -0.00846377 0)
(-2.42225 -0.0104821 8.93974e-20)
(-2.41206 -0.0124791 -4.32842e-20)
(-2.40032 -0.0144531 -4.17125e-20)
(-2.38701 -0.0164018 0)
(-2.37213 -0.0183235 -1.14712e-19)
(-2.35569 -0.0202156 7.32554e-20)
(-2.33766 -0.0220766 3.47137e-20)
(-2.31807 -0.023904 0)
(-2.2969 -0.0256963 3.11944e-20)
(-2.27417 -0.0274513 8.86762e-20)
(-2.24988 -0.0291674 0)
(-2.22403 -0.0308428 5.1935e-20)
(-2.19664 -0.0324762 4.81652e-20)
(-2.16772 -0.034066 4.43324e-20)
(-2.13729 -0.035611 0)
(-2.10535 -0.0371088 0)
(-2.07193 -0.0385579 0)
(-2.03704 -0.0399564 -1.45402e-20)
(-2.00071 -0.0413033 -1.17365e-20)
(-1.96296 -0.042597 0)
(-1.92382 -0.0438371 -1.57149e-20)
(-1.88331 -0.0450227 -1.13691e-20)
(-1.84146 -0.0461543 0)
(-1.7983 -0.0472315 -1.63104e-21)
(-1.75388 -0.0482547 4.11081e-21)
(-1.7082 -0.0492242 -7.55389e-21)
(-1.66132 -0.0501408 -1.04138e-20)
(-1.61326 -0.0509982 0)
(-1.56408 -0.0517923 0)
(-1.5138 -0.0525297 0)
(-1.46247 -0.0532151 -3.16406e-20)
(-1.41013 -0.0538438 3.46403e-20)
(-1.35683 -0.0544134 8.14032e-20)
(-1.30261 -0.0549253 -4.68586e-20)
(-1.24752 -0.0553806 4.99581e-20)
(-1.19161 -0.0557799 5.73219e-20)
(-1.13492 -0.0561243 0)
(-1.0775 -0.0564148 0)
(-1.01941 -0.0566528 -7.12889e-20)
(-0.960688 -0.0568395 0)
(-0.901386 -0.0569767 0)
(-0.841554 -0.0570659 1.78179e-19)
(-0.781239 -0.057109 0)
(-0.720488 -0.0571079 9.93883e-20)
(-0.65935 -0.0570648 -1.075e-19)
(-0.597871 -0.0569819 0)
(-0.536094 -0.0568616 1.16995e-19)
(-0.474064 -0.056706 0)
(-0.411824 -0.0565181 0)
(-0.349414 -0.0562999 -1.3749e-19)
(-0.286873 -0.0560542 2.84974e-19)
(-0.224238 -0.0557829 -1.49888e-19)
(-0.161547 -0.0554873 0)
(-0.0988315 -0.0551678 0)
(-0.0361303 -0.0548263 1.66545e-19)
(0.0265435 -0.0544635 0)
(0.0891653 -0.0540791 1.72897e-19)
(0.151729 -0.0536655 0)
(0.214192 -0.0530699 0)
(0.27644 -0.052257 0)
(0.338466 -0.0513939 1.82655e-19)
(0.400302 -0.0505449 0)
(0.461935 -0.0497156 -1.86153e-19)
(0.523348 -0.0488944 0)
(0.584508 -0.0480604 0)
(0.645354 -0.0471802 3.79433e-19)
(0.705767 -0.0461978 -3.82102e-19)
(0.76556 -0.0450066 0)
(0.824261 -0.0434062 0)
(0.881502 -0.0409015 0)
(0.934507 -0.036557 1.18152e-18)
(0.986355 -0.0273911 0)
(1.01556 -0.00507547 -8.20561e-19)
(0.00487798 -0.0437535 -3.45243e-22)
(0.0118293 -0.0536681 1.31278e-18)
(0.0148602 -0.0466333 0)
(0.0152781 -0.0365708 -5.69817e-19)
(0.0137524 -0.0260211 0)
(0.0105807 -0.0156119 0)
(0.00600443 -0.00563804 3.18324e-23)
(0.000153516 0.00371171 1.81833e-19)
(-0.00692713 0.0123269 1.73228e-19)
(-0.0152532 0.0201751 1.66423e-19)
(-0.0248756 0.0272833 0)
(-0.0358696 0.0337314 0)
(-0.0483182 0.0396559 -1.51738e-19)
(-0.0622995 0.0452369 -2.94838e-19)
(-0.0778787 0.0506684 2.86267e-19)
(-0.0951068 0.0561284 0)
(-0.114023 0.0617573 2.69278e-19)
(-0.134658 0.0676485 -1.30571e-19)
(-0.157032 0.0738471 0)
(-0.181158 0.0803587 2.44747e-19)
(-0.207013 0.0871695 1.18498e-19)
(-0.234534 0.0942329 -2.28783e-19)
(-0.263627 0.101464 -1.1049e-19)
(-0.29417 0.108754 0)
(-0.326003 0.115973 2.0478e-19)
(-0.35895 0.122982 1.96915e-19)
(-0.392819 0.12964 0)
(-0.427418 0.135818 1.81756e-19)
(-0.462565 0.141405 0)
(-0.498097 0.146319 1.67812e-19)
(-0.53386 0.15051 8.07302e-20)
(-0.569716 0.153949 0)
(-0.605556 0.156627 0)
(-0.641295 0.158555 0)
(-0.676856 0.159772 0)
(-0.712189 0.160338 0)
(-0.747277 0.16032 0)
(-0.782114 0.15979 1.24881e-19)
(-0.8167 0.158827 -1.81356e-19)
(-0.851046 0.157506 0)
(-0.885166 0.1559 0)
(-0.919077 0.154076 0)
(-0.952797 0.152095 8.27294e-23)
(-0.986347 0.150011 1.04623e-19)
(-1.01974 0.147869 2.03825e-19)
(-1.053 0.145708 -1.98817e-19)
(-1.08614 0.143562 -9.69976e-20)
(-1.11915 0.141455 9.48883e-20)
(-1.15203 0.139398 -1.22926e-22)
(-1.18478 0.137395 9.06733e-20)
(-1.2174 0.135443 0)
(-1.24989 0.13354 8.69815e-20)
(-1.28224 0.13168 -1.43115e-22)
(-1.31446 0.129856 0)
(-1.34654 0.128061 0)
(-1.37847 0.126288 -8.05704e-20)
(-1.41025 0.124527 0)
(-1.44187 0.122772 0)
(-1.47332 0.121015 7.62683e-20)
(-1.50458 0.119247 1.50294e-19)
(-1.53564 0.117462 -7.40719e-20)
(-1.56649 0.115652 0)
(-1.5971 0.113811 7.1721e-20)
(-1.62746 0.111933 0)
(-1.65755 0.110011 6.91902e-20)
(-1.68735 0.108042 6.84482e-20)
(-1.71683 0.106021 -1.34516e-19)
(-1.74596 0.103943 -6.60957e-20)
(-1.77472 0.101806 0)
(-1.80308 0.0996058 1.28609e-19)
(-1.83102 0.0973411 0)
(-1.8585 0.09501 1.87451e-19)
(-1.88549 0.0926111 1.2305e-19)
(-1.91196 0.0901435 1.21258e-19)
(-1.93787 0.0876072 -1.19491e-19)
(-1.9632 0.085002 1.7675e-19)
(-1.98791 0.0823287 0)
(-2.01197 0.0795881 0)
(-2.03534 0.0767816 -1.12613e-19)
(-2.05799 0.0739107 -1.66504e-19)
(-2.07987 0.0709772 0)
(-2.10096 0.0679834 5.38916e-20)
(-2.12123 0.0649317 0)
(-2.14063 0.0618244 -1.56453e-19)
(-2.15913 0.0586646 -1.7092e-22)
(-2.17669 0.0554549 1.5848e-22)
(-2.19329 0.0521987 9.92204e-20)
(-2.20889 0.0488987 0)
(-2.22346 0.0455581 -9.58388e-20)
(-2.23696 0.0421797 -1.04866e-22)
(-2.24937 0.0387664 0)
(-2.26065 0.0353211 0)
(-2.27078 0.031847 0)
(-2.27974 0.0283475 8.72008e-20)
(-2.2875 0.0248266 0)
(-2.29405 0.0212897 0)
(-2.29937 0.0177441 0)
(-2.30345 0.0142 0)
(-2.3063 0.0106721 0)
(-2.30793 0.00718122 7.61051e-20)
(-2.3083 0.00374778 0)
(-2.30738 0.000372223 7.20682e-20)
(-2.30512 -0.00297342 7.00266e-20)
(-2.30145 -0.00630276 -6.79596e-20)
(-2.29635 -0.00960749 0)
(-2.28979 -0.0128842 -6.37447e-20)
(-2.28176 -0.0161304 0)
(-2.27224 -0.0193431 -5.94179e-20)
(-2.26121 -0.0225191 5.72115e-20)
(-2.24868 -0.0256547 1.6537e-19)
(-2.23463 -0.0287465 0)
(-2.21905 -0.031791 1.51762e-19)
(-2.20195 -0.0347847 4.86385e-20)
(-2.18332 -0.0377243 0)
(-2.16316 -0.0406065 8.73292e-20)
(-2.14147 -0.0434282 8.25396e-20)
(-2.11826 -0.0461864 -1.16198e-19)
(-2.09354 -0.048878 0)
(-2.0673 -0.0515006 -3.35397e-20)
(-2.03956 -0.0540516 -3.1014e-20)
(-2.01034 -0.0565286 -8.61887e-20)
(-1.97964 -0.0589291 0)
(-1.94747 -0.0612502 0)
(-1.91387 -0.0634891 0)
(-1.87884 -0.0656433 -1.89077e-20)
(-1.8424 -0.0677108 0)
(-1.80458 -0.0696894 0)
(-1.76539 -0.0715778 9.86374e-21)
(-1.72488 -0.0733747 7.11136e-21)
(-1.68307 -0.0750797 0)
(-1.63998 -0.0766929 0)
(-1.59565 -0.078215 -2.54373e-21)
(-1.55011 -0.079646 0)
(-1.5034 -0.0809855 1.39143e-20)
(-1.45554 -0.0822282 1.84815e-20)
(-1.40658 -0.0833698 0)
(-1.35655 -0.0844155 0)
(-1.3055 -0.0853689 -3.58302e-20)
(-1.25346 -0.0862272 -1.24735e-21)
(-1.20049 -0.0869878 -1.2641e-21)
(-1.14663 -0.0876517 0)
(-1.09191 -0.0882204 -1.19976e-19)
(-1.0364 -0.0886952 0)
(-0.980132 -0.0890777 0)
(-0.923157 -0.0893694 0)
(-0.865524 -0.0895726 8.45123e-20)
(-0.807281 -0.0896893 0)
(-0.748476 -0.0897221 -1.90311e-19)
(-0.689157 -0.0896734 -1.02533e-19)
(-0.629371 -0.0895464 0)
(-0.569165 -0.0893441 -1.14565e-19)
(-0.508587 -0.0890697 0)
(-0.44768 -0.0887266 0)
(-0.38649 -0.0883186 -3.94983e-19)
(-0.32506 -0.0878491 2.74372e-19)
(-0.263431 -0.0873222 0)
(-0.201642 -0.0867413 2.98267e-19)
(-0.139732 -0.0861099 -1.56493e-19)
(-0.0777378 -0.0854311 0)
(-0.0156913 -0.0847097 0)
(0.0463785 -0.0839501 0)
(0.108439 -0.0831554 -5.24644e-19)
(0.170458 -0.0823205 0)
(0.232405 -0.0814468 -1.8224e-19)
(0.294271 -0.0805415 0)
(0.356049 -0.079599 0)
(0.417707 -0.0786133 0)
(0.47923 -0.0776039 0)
(0.54061 -0.0765955 0)
(0.601822 -0.0755881 0)
(0.66284 -0.074567 -4.03122e-19)
(0.723624 -0.0735042 0)
(0.784113 -0.0723519 -2.07735e-19)
(0.844194 -0.0710279 6.2812e-19)
(0.903695 -0.069381 0)
(0.962231 -0.0671258 0)
(1.01953 -0.0636621 -4.31962e-19)
(1.07375 -0.0578163 -4.39061e-19)
(1.12788 -0.0468792 4.44384e-19)
(1.16964 -0.0237897 4.5766e-19)
(0.00222993 -0.0562806 -3.13917e-18)
(0.00325373 -0.0574076 -1.64556e-18)
(0.000957696 -0.0444925 -6.41142e-19)
(-0.00313481 -0.0304887 -2.28308e-19)
(-0.00862248 -0.0168914 0)
(-0.0153083 -0.00391148 3.21144e-19)
(-0.0230852 0.00839717 -1.45481e-19)
(-0.0319241 0.0199997 0)
(-0.0418511 0.0308853 -1.28318e-19)
(-0.0529237 0.0410765 0)
(-0.0652187 0.0506336 2.37984e-19)
(-0.0788215 0.0596552 0)
(-0.0938154 0.0682748 1.12287e-19)
(-0.11027 0.0766475 2.18373e-19)
(-0.128234 0.0849295 -2.1226e-19)
(-0.147729 0.0932565 0)
(-0.168749 0.101727 -2.00086e-19)
(-0.191265 0.110393 0)
(-0.215221 0.119259 0)
(-0.240536 0.128282 -1.81979e-19)
(-0.267104 0.137382 0)
(-0.294793 0.14645 7.6042e-23)
(-0.323447 0.155362 0)
(-0.352901 0.163978 0)
(-0.382981 0.172158 -4.62069e-23)
(-0.413519 0.179771 -1.47098e-19)
(-0.444359 0.186703 -1.41677e-19)
(-0.475366 0.192862 -1.36499e-19)
(-0.506425 0.198188 0)
(-0.537442 0.202645 -2.53501e-19)
(-0.568346 0.206217 0)
(-0.599083 0.208918 -1.17898e-19)
(-0.629622 0.21078 0)
(-0.659949 0.211853 0)
(-0.690072 0.212205 1.0627e-19)
(-0.720009 0.211921 0)
(-0.749783 0.211087 -9.96557e-20)
(-0.779416 0.209789 2.31249e-23)
(-0.808934 0.208107 1.87626e-19)
(-0.838363 0.206116 -1.8234e-19)
(-0.867727 0.203887 0)
(-0.897044 0.201482 0)
(-0.926331 0.198956 -8.41207e-20)
(-0.955601 0.196356 0)
(-0.984864 0.193721 -8.00818e-20)