/*--------------------------------*- C++ -*----------------------------------*\
| =========                 |                                                 |
| \\      /  F ield         | OpenFOAM: The Open Source CFD Toolbox           |
|  \\    /   O peration     | Version:  2406                                  |
|   \\  /    A nd           | Website:  www.openfoam.com                      |
|    \\/     M anipulation  |                                                 |
\*---------------------------------------------------------------------------*/
FoamFile
{
    version     2.0;
    format      ascii;
    arch        "LSB;label=32;scalar=64";
    class       volScalarField;
    location    "700";
    object      p;
}
// * * * * * * * * * * * * * * * * * * * * * * * * * * * * * * * * * * * * * //

dimensions      [0 2 -2 0 0 0 0];

internalField   nonuniform List<scalar> 
150000
(
237.169
130.029
73.0393
49.7518
36.3975
27.5847
21.8169
17.8433
14.8951
12.5874
10.7119
9.14239
7.79831
6.62638
5.58972
4.66174
3.82263
3.05727
2.35384
1.70298
1.09712
0.530081
-0.00324533
-0.507118
-0.985127
-1.44032
-1.87529
-2.2923
-2.69327
-3.0799
-3.45367
-3.81588
-4.16767
-4.51008
-4.84401
-5.17026
-5.48958
-5.80261
-6.10996
-6.41215
-6.70967
-7.00298
-7.29248
-7.57854
-7.86151
-8.1417
-8.41942
-8.69492
-8.96847
-9.24031
-9.51065
-9.77971
-10.0477
-10.3148
-10.5811
-10.8469
-11.1124
-11.3776
-11.6427
-11.9079
-12.1733
-12.4391
-12.7054
-12.9723
-13.2401
-13.5087
-13.7784
-14.0494
-14.3217
-14.5955
-14.8709
-15.1482
-15.4275
-15.7089
-15.9928
-16.2791
-16.5682
-16.8604
-17.1557
-17.4545
-17.7572
-18.0639
-18.375
-18.691
-19.0122
-19.3391
-19.6723
-20.0123
-20.3597
-20.7153
-21.08
-21.4546
-21.8405
-22.2399
-22.6576
-23.1058
-23.6097
-24.1938
-24.9286
-26.747
136.335
96.7083
67.1143
50.5336
39.1171
30.6692
24.6294
20.2409
16.904
14.271
12.134
10.3562
8.84565
7.53929
6.39281
5.37401
4.45891
3.6293
2.87101
2.17289
1.526
0.923078
0.358169
-0.173666
-0.676565
-1.15402
-1.60901
-2.04407
-2.46139
-2.8629
-3.25023
-3.62485
-3.98805
-4.34094
-4.68454
-5.01975
-5.34737
-5.66811
-5.98264
-6.29153
-6.59532
-6.8945
-7.18951
-7.48075
-7.76859
-8.05339
-8.33545
-8.61507
-8.89252
-9.16806
-9.44193
-9.71435
-9.98552
-10.2557
-10.525
-10.7936
-11.0617
-11.3295
-11.5971
-11.8648
-12.1325
-12.4006
-12.6691
-12.9382
-13.208
-13.4787
-13.7505
-14.0234
-14.2977
-14.5734
-14.8509
-15.1301
-15.4113
-15.6948
-15.9806
-16.269
-16.5602
-16.8544
-17.152
-17.4532
-17.7582
-18.0675
-18.3814
-18.7004
-19.0249
-19.3554
-19.6927
-20.0374
-20.3904
-20.7528
-21.1259
-21.5114
-21.9119
-22.3309
-22.7746
-23.2539
-23.7858
-24.3961
-25.1855
-26.5073
87.8094
76.577
61.9286
49.7862
40.1736
32.5471
26.6713
22.1572
18.6151
15.7726
13.446
11.5047
9.85589
8.43323
7.18871
6.08684
5.1009
4.21043
3.39951
2.65556
1.96851
1.33019
0.733915
0.174138
-0.353767
-0.8537
-1.32897
-1.78241
-2.21644
-2.63318
-3.03446
-3.42188
-3.79684
-4.16059
-4.51424
-4.85875
-5.19502
-5.52381
-5.84584
-6.16175
-6.47211
-6.77745
-7.07825
-7.37494
-7.66792
-7.95756
-8.24421
-8.52817
-8.80974
-9.0892
-9.36678
-9.64275
-9.91731
-10.1907
-10.4631
-10.7347
-11.0056
-11.2762
-11.5465
-11.8166
-12.0869
-12.3573
-12.6281
-12.8995
-13.1715
-13.4444
-13.7183
-13.9933
-14.2696
-14.5474
-14.8268
-15.108
-15.3913
-15.6767
-15.9645
-16.2549
-16.5482
-16.8446
-17.1444
-17.4478
-17.7552
-18.0669
-18.3835
-18.7053
-19.0328
-19.3667
-19.7077
-20.0566
-20.4145
-20.7827
-21.1628
-21.5571
-21.9684
-22.401
-22.8607
-23.3557
-23.8959
-24.4912
-25.161
-25.9339
67.1751
63.5304
55.3076
46.5407
38.9602
32.5904
27.3403
23.0762
19.6034
16.7446
14.3622
12.3509
10.6301
9.13895
7.83174
6.67345
5.63719
4.70196
3.85125
3.07186
2.35317
1.68653
1.06481
0.482114
-0.0665098
-0.585231
-1.07759
-1.54662
-1.99491
-2.42474
-2.83805
-3.23656
-3.62177
-3.99502
-4.35748
-4.71019
-5.05408
-5.39001
-5.71871
-6.04086
-6.35708
-6.66792
-6.9739
-7.27548
-7.57307
-7.86707
-8.15785
-8.44572
-8.73101
-9.01399
-9.29494
-9.5741
-9.85172
-10.128
-10.4032
-10.6775
-10.951
-11.224
-11.4967
-11.7691
-12.0416
-12.3141
-12.587
-12.8604
-13.1344
-13.4091
-13.6848
-13.9616
-14.2397
-14.5192
-14.8004
-15.0833
-15.3682
-15.6553
-15.9447
-16.2368
-16.5317
-16.8298
-17.1312
-17.4363
-17.7454
-18.059
-18.3773
-18.701
-19.0305
-19.3665
-19.7097
-20.0609
-20.4213
-20.7921
-21.175
-21.5718
-21.9851
-22.4178
-22.8732
-23.3545
-23.8623
-24.3905
-24.92
-25.4077
54.5224
53.1929
48.5307
42.5723
36.8781
31.7533
27.2557
23.4048
20.1431
17.3786
15.024
13.0039
11.2559
9.72936
8.38389
7.18753
6.11487
5.14563
4.26351
3.45533
2.71033
2.01968
1.37607
0.773379
0.206478
-0.328978
-0.836688
-1.31982
-1.78111
-2.22292
-2.64731
-3.05608
-3.45082
-3.83292
-4.20362
-4.56403
-4.91511
-5.25776
-5.59277
-5.92084
-6.24262
-6.55871
-6.86962
-7.17586
-7.47785
-7.77603
-8.07075
-8.36236
-8.65121
-8.93757
-9.22173
-9.50396
-9.7845
-10.0636
-10.3414
-10.6182
-10.8942
-11.1696
-11.4445
-11.7191
-11.9936
-12.2682
-12.543
-12.8182
-13.094
-13.3705
-13.6479
-13.9263
-14.206
-14.487
-14.7696
-15.054
-15.3403
-15.6288
-15.9196
-16.213
-16.5092
-16.8084
-17.1111
-17.4174
-17.7277
-18.0423
-18.3617
-18.6864
-19.0168
-19.3535
-19.6973
-20.049
-20.4094
-20.7796
-21.1609
-21.5546
-21.9621
-22.3846
-22.8225
-23.274
-23.7334
-24.1862
-24.6046
-24.9413
45.8233
45.3745
42.7063
38.7132
34.4984
30.4432
26.6847
23.31
20.3388
17.7427
15.4777
13.4982
11.7608
10.2273
8.86512
7.64693
6.55019
5.55634
4.65007
3.81872
3.05184
2.34069
1.67796
1.05752
0.47416
-0.0765489
-0.598393
-1.09463
-1.56808
-2.02118
-2.45607
-2.87462
-3.27847
-3.66908
-4.04773
-4.41557
-4.77363
-5.12282
-5.46398
-5.79783
-6.12506
-6.44628
-6.76204
-7.07285
-7.37918
-7.68146
-7.98006
-8.27537
-8.56771
-8.8574
-9.14472
-9.42996
-9.71337
-9.99519
-10.2756
-10.5549
-10.8333
-11.1109
-11.388
-11.6647
-11.9412
-12.2177
-12.4943
-12.7713
-13.0488
-13.3269
-13.6058
-13.8857
-14.1668
-14.4492
-14.7331
-15.0187
-15.3062
-15.5957
-15.8876
-16.1819
-16.4791
-16.7792
-17.0825
-17.3895
-17.7003
-18.0153
-18.3349
-18.6596
-18.9898
-19.3259
-19.6687
-20.0187
-20.3765
-20.743
-21.1189
-21.5046
-21.9004
-22.3057
-22.7186
-23.1342
-23.5432
-23.9291
-24.2652
-24.5139
39.6393
39.5111
37.8957
35.1639
32.0396
28.8575
25.7678
22.8753
20.2348
17.8573
15.7311
13.8349
12.1434
10.6312
9.27424
8.05128
6.94366
5.93539
5.01284
4.16447
3.38047
2.65255
1.97367
1.33782
0.739851
0.175371
-0.359422
-0.867811
-1.35265
-1.81643
-2.26132
-2.68925
-3.10189
-3.50074
-3.88714
-4.26226
-4.62716
-4.98279
-5.33001
-5.66959
-6.00222
-6.32853
-6.64911
-6.96449
-7.27513
-7.58149
-7.88398
-8.18296
-8.4788
-8.7718
-9.06228
-9.35052
-9.63678
-9.92131
-10.2043
-10.4861
-10.7668
-11.0467
-11.3259
-11.6046
-11.883
-12.1613
-12.4397
-12.7184
-12.9974
-13.277
-13.5573
-13.8385
-14.1209
-14.4044
-14.6894
-14.976
-15.2644
-15.5548
-15.8473
-16.1423
-16.4399
-16.7404
-17.044
-17.351
-17.6616
-17.9763
-18.2952
-18.6189
-18.9476
-19.2817
-19.6218
-19.9681
-20.3211
-20.681
-21.0481
-21.422
-21.802
-22.186
-22.5706
-22.9493
-23.3118
-23.6423
-23.9188
-24.114
34.9921
34.9629
33.9145
31.9917
29.6554
27.1606
24.6403
22.1944
19.8885
17.7533
15.7974
14.0169
12.4012
10.936
9.60587
8.39568
7.29126
6.27978
5.34985
4.49147
3.69591
2.95563
2.26406
1.61553
1.00515
0.428622
-0.117749
-0.637205
-1.13258
-1.60635
-2.06072
-2.4976
-2.91872
-3.32557
-3.71953
-4.10179
-4.47344
-4.83545
-5.1887
-5.53398
-5.87201
-6.20344
-6.52886
-6.84881
-7.16381
-7.47429
-7.78069
-8.08338
-8.38274
-8.67909
-8.97275
-9.26401
-9.55313
-9.84039
-10.126
-10.4102
-10.6933
-10.9753
-11.2566
-11.5373
-11.8176
-12.0977
-12.3778
-12.658
-12.9385
-13.2195
-13.5011
-13.7835
-14.0669
-14.3514
-14.6373
-14.9246
-15.2137
-15.5046
-15.7975
-16.0927
-16.3904
-16.6908
-16.994
-17.3005
-17.6103
-17.9237
-18.2411
-18.5627
-18.8888
-19.2196
-19.5553
-19.8962
-20.2422
-20.5934
-20.9492
-21.3087
-21.6704
-22.0314
-22.3872
-22.731
-23.0528
-23.3391
-23.5726
-23.7346
31.3271
31.3233
30.6002
29.2056
27.4331
25.4654
23.4107
21.3553
19.3627
17.4708
15.6987
14.0538
12.5355
11.1383
9.85405
8.67324
7.58613
6.58321
5.6556
4.79514
3.99448
3.24704
2.54702
1.88924
1.26917
0.682814
0.126639
-0.402461
-0.907232
-1.3901
-1.85322
-2.2985
-2.72765
-3.14217
-3.54344
-3.93265
-4.31092
-4.67922
-5.03845
-5.3894
-5.73282
-6.06937
-6.39966
-6.72424
-7.04363
-7.35828
-7.66864
-7.9751
-8.27804
-8.57778
-8.87467
-9.16898
-9.46101
-9.75102
-10.0393
-10.3259
-10.6113
-10.8956
-11.179
-11.4616
-11.7438
-12.0256
-12.3073
-12.589
-12.8709
-13.1531
-13.4359
-13.7193
-14.0036
-14.2889
-14.5755
-14.8633
-15.1527
-15.4439
-15.7369
-16.0319
-16.3293
-16.629
-16.9315
-17.2367
-17.545
-17.8566
-18.1715
-18.4901
-18.8124
-19.1386
-19.4687
-19.8026
-20.1402
-20.4808
-20.8237
-21.1674
-21.5098
-21.8476
-22.176
-22.4884
-22.7759
-23.0274
-23.2299
-23.3706
28.3394
28.3396
27.8149
26.7727
25.4038
23.8364
22.1544
20.4286
18.7154
17.0526
15.4639
13.9625
12.5541
11.2395
10.0159
8.87852
7.82151
6.83846
5.92297
5.0688
4.2701
3.52145
2.8179
2.15497
1.52862
0.935234
0.371564
-0.165286
-0.677903
-1.1686
-1.63945
-2.09229
-2.5288
-2.95045
-3.35859
-3.75443
-4.13906
-4.51345
-4.87851
-5.23505
-5.5838
-5.92544
-6.26058
-6.58979
-6.91358
-7.23243
-7.54679
-7.85706
-8.16361
-8.46679
-8.76694
-9.06436
-9.35933
-9.65213
-9.943
-10.2322
-10.5199
-10.8064
-11.0918
-11.3765
-11.6604
-11.9439
-12.2272
-12.5103
-12.7935
-13.0769
-13.3607
-13.645
-13.9301
-14.216
-14.503
-14.7912
-15.0807
-15.3717
-15.6644
-15.959
-16.2556
-16.5543
-16.8554
-17.1589
-17.465
-17.7739
-18.0857
-18.4004
-18.7181
-19.0386
-19.362
-19.6879
-20.0157
-20.3448
-20.6739
-21.0013
-21.3245
-21.64
-21.9433
-22.2283
-22.4874
-22.7117
-22.8917
-23.0184
25.8446
25.8436
25.4468
24.6461
23.5691
22.3059
20.9196
19.4668
17.9952
16.5397
15.1244
13.765
12.471
11.2468
10.0936
9.01016
7.99358
7.04019
6.14577
5.30592
4.51627
3.77259
3.07086
2.40737
1.77865
1.18155
0.613199
0.0709752
-0.447488
-0.944333
-1.4215
-1.88073
-2.32362
-2.75159
-3.16595
-3.56786
-3.9584
-4.33853
-4.70913
-5.07102
-5.42492
-5.7715
-6.1114
-6.44516
-6.77331
-7.09633
-7.41467
-7.72874
-8.03891
-8.34555
-8.64898
-8.94951
-9.24744
-9.54303
-9.83655
-10.1282
-10.4183
-10.707
-10.9945
-11.2811
-11.5668
-11.852
-12.1367
-12.4212
-12.7056
-12.99
-13.2747
-13.5598
-13.8455
-14.1319
-14.4191
-14.7073
-14.9967
-15.2874
-15.5795
-15.8732
-16.1687
-16.4659
-16.7651
-17.0664
-17.3698
-17.6755
-17.9834
-18.2935
-18.6057
-18.9199
-19.2357
-19.5528
-19.8702
-20.1872
-20.5023
-20.8134
-21.1182
-21.4132
-21.6941
-21.9556
-22.1914
-22.3945
-22.558
-22.6755
23.7228
23.7199
23.41
22.7796
21.9173
20.8867
19.7346
18.5058
17.2396
15.9667
14.7098
13.4852
12.3038
11.1724
10.0945
9.07139
8.10255
7.18633
6.32036
5.50184
4.72771
3.99488
3.30026
2.64089
2.01394
1.41676
0.846889
0.302032
-0.219906
-0.720857
-1.20258
-1.6667
-2.11469
-2.54788
-2.96751
-3.3747
-3.77048
-4.15577
-4.53145
-4.89828
-5.257
-5.60826
-5.95267
-6.2908
-6.62316
-6.95023
-7.27246
-7.59024
-7.90398
-8.21402
-8.52069
-8.82431
-9.12517
-9.42354
-9.71968
-10.0138
-10.3062
-10.5971
-10.8866
-11.1751
-11.4626
-11.7493
-12.0354
-12.3212
-12.6067
-12.8921
-13.1777
-13.4634
-13.7495
-14.0361
-14.3234
-14.6115
-14.9005
-15.1906
-15.4818
-15.7743
-16.0682
-16.3636
-16.6606
-16.9592
-17.2594
-17.5613
-17.8647
-18.1697
-18.4759
-18.7831
-19.0909
-19.3986
-19.7055
-20.0102
-20.3114
-20.6071
-20.8947
-21.1711
-21.4324
-21.674
-21.8908
-22.0775
-22.2287
-22.3402
21.8923
21.8881
21.6398
21.1329
20.4312
19.58
18.6142
17.5688
16.4756
15.3611
14.2458
13.1452
12.0707
11.0303
10.0288
9.06905
8.15223
7.27824
6.44617
5.65447
4.90126
4.18442
3.50171
2.85089
2.22974
1.63612
1.06798
0.523404
0.000572531
-0.502199
-0.986478
-1.45371
-1.90524
-2.3423
-2.76603
-3.17747
-3.57759
-3.96727
-4.34734
-4.71855
-5.08158
-5.43709
-5.78565
-6.12783
-6.46413
-6.79501
-7.12092
-7.44225
-7.7594
-8.07271
-8.38252
-8.68913
-8.99283
-9.2939
-9.59259
-9.88916
-10.1838
-10.4768
-10.7683
-11.0585
-11.3477
-11.6359
-11.9234
-12.2103
-12.4969
-12.7832
-13.0693
-13.3556
-13.642
-13.9287
-14.2158
-14.5036
-14.792
-15.0811
-15.3712
-15.6623
-15.9544
-16.2476
-16.5419
-16.8374
-17.134
-17.4317
-17.7303
-18.0297
-18.3295
-18.6294
-18.9289
-19.2272
-19.5233
-19.8162
-20.1041
-20.3852
-20.6571
-20.9169
-21.1612
-21.3862
-21.5877
-21.7615
-21.9038
-22.0114
20.2949
20.2901
20.087
19.6721
19.0926
18.3814
17.5646
16.6693
15.7215
14.7432
13.7527
12.7643
11.789
10.835
9.9081
9.01201
8.14897
7.32003
6.52533
5.76436
5.03615
4.33939
3.67261
3.03418
2.42246
1.83578
1.27251
0.731071
0.209952
-0.29228
-0.77698
-1.24542
-1.69878
-2.13817
-2.56463
-2.97911
-3.3825
-3.77562
-4.15924
-4.53406
-4.90075
-5.25992
-5.61212
-5.9579
-6.29773
-6.63207
-6.96135
-7.28597
-7.60629
-7.92266
-8.2354
-8.54483
-8.85122
-9.15484
-9.45596
-9.75481
-10.0516
-10.3466
-10.64
-10.9319
-11.2226
-11.5122
-11.8009
-12.0889
-12.3764
-12.6634
-12.9501
-13.2366
-13.5232
-13.8098
-14.0966
-14.3838
-14.6714
-14.9595
-15.2481
-15.5374
-15.8274
-16.1181
-16.4096
-16.7017
-16.9944
-17.2875
-17.581
-17.8746
-18.1678
-18.4602
-18.7513
-19.0402
-19.326
-19.6074
-19.8829
-20.1506
-20.4083
-20.6536
-20.8833
-21.0944
-21.2836
-21.4474
-21.583
-21.6883
18.8878
18.8828
18.7141
18.3691
17.8841
17.2835
16.5866
15.8148
14.989
14.1275
13.2462
12.358
11.4732
10.5998
9.74392
8.90982
8.1004
7.31747
6.56195
5.83409
5.13363
4.45995
3.81218
3.18925
2.59
2.01319
1.45758
0.921909
0.404959
-0.0944571
-0.577478
-1.04519
-1.49862
-1.93874
-2.36647
-2.78266
-3.18811
-3.58359
-3.96978
-4.34735
-4.7169
-5.07902
-5.43422
-5.78302
-6.12587
-6.46321
-6.79545
-7.12297
-7.44612
-7.76525
-8.08066
-8.39265
-8.7015
-9.00747
-9.31082
-9.61177
-9.91055
-10.2074
-10.5024
-10.7959
-11.088
-11.3789
-11.6687
-11.9576
-12.2458
-12.5334
-12.8204
-13.1072
-13.3937
-13.68
-13.9664
-14.2528
-14.5393
-14.8261
-15.1132
-15.4005
-15.6882
-15.9762
-16.2644
-16.5529
-16.8415
-17.13
-17.4181
-17.7057
-17.9922
-18.2772
-18.56
-18.8399
-19.1157
-19.3863
-19.6502
-19.9058
-20.151
-20.3835
-20.6009
-20.8005
-20.9796
-21.1357
-21.2665
-21.3706
17.6388
17.6338
17.4917
17.201
16.7903
16.2779
15.6785
15.0087
14.2854
13.524
12.7378
11.9384
11.1353
10.3361
9.54669
8.77171
8.01442
7.27709
6.56121
5.86757
5.19647
4.54783
3.92124
3.31612
2.73171
2.16715
1.62152
1.09389
0.58328
0.0887457
-0.390648
-0.855806
-1.3076
-1.74687
-2.1744
-2.59094
-2.99722
-3.39391
-3.78162
-4.16098
-4.53252
-4.89678
-5.25426
-5.60541
-5.95068
-6.29047
-6.62516
-6.95512
-7.28068
-7.60218
-7.9199
-8.23413
-8.54514
-8.85319
-9.15851
-9.46133
-9.76186
-10.0603
-10.3569
-10.6517
-10.945
-11.237
-11.5277
-11.8174
-12.1061
-12.3941
-12.6814
-12.9681
-13.2544
-13.5403
-13.8259
-14.1114
-14.3968
-14.682
-14.9673
-15.2525
-15.5376
-15.8227
-16.1076
-16.3923
-16.6766
-16.9603
-17.2431
-17.5246
-17.8045
-18.0822
-18.357
-18.6282
-18.8946
-19.1552
-19.4086
-19.6532
-19.8873
-20.1088
-20.3157
-20.5058
-20.6769
-20.827
-20.9545
-21.0581
16.5227
16.518
16.3968
16.149
15.7975
15.3563
14.8367
14.2516
13.6148
12.939
12.2357
11.5148
10.785
10.0533
9.32544
8.60603
7.89851
7.20545
6.52868
5.86941
5.22834
4.60578
4.00175
3.416
2.84814
2.29762
1.76382
1.24606
0.743609
0.255727
-0.218329
-0.679296
-1.1279
-1.56483
-1.99077
-2.40637
-2.81225
-3.20901
-3.59719
-3.97734
-4.34996
-4.71553
-5.07449
-5.42728
-5.77429
-6.11591
-6.45249
-6.78437
-7.11186
-7.43527
-7.75489
-8.07098
-8.3838
-8.69359
-9.00057
-9.30496
-9.60697
-9.90679
-10.2046
-10.5006
-10.7949
-11.0877
-11.3792
-11.6694
-11.9585
-12.2467
-12.534
-12.8205
-13.1064
-13.3917
-13.6765
-13.9608
-14.2448
-14.5284
-14.8116
-15.0945
-15.377
-15.659
-15.9405
-16.2213
-16.5012
-16.78
-17.0575
-17.3331
-17.6065
-17.8772
-18.1443
-18.4072
-18.6649
-18.9163
-19.1602
-19.395
-19.6194
-19.8315
-20.0295
-20.2118
-20.3765
-20.522
-20.6471
-20.7509
15.5199
15.5155
15.411
15.1976
14.8939
14.5109
14.057
13.5428
12.9792
12.3769
11.7456
11.0939
10.4296
9.75904
9.08771
8.42
7.75942
7.10869
6.46985
5.84437
5.23327
4.63716
4.05635
3.49092
2.94073
2.40551
1.88489
1.37841
0.88555
0.405759
-0.0615356
-0.516915
-0.960962
-1.39425
-1.81735
-2.23081
-2.63515
-3.0309
-3.41853
-3.79852
-4.17131
-4.53734
-4.897
-5.25068
-5.59875
-5.94155
-6.27941
-6.61264
-6.94154
-7.26639
-7.58745
-7.90497
-8.21919
-8.53035
-8.83864
-9.14428
-9.44746
-9.74836
-10.0472
-10.344
-10.6391
-10.9325
-11.2244
-11.515
-11.8043
-12.0924
-12.3795
-12.6657
-12.951
-13.2355
-13.5193
-13.8023
-14.0847
-14.3665
-14.6476
-14.9281
-15.2078
-15.4866
-15.7646
-16.0414
-16.317
-16.591
-16.8631
-17.133
-17.4001
-17.664
-17.9239
-18.1792
-18.4288
-18.6718
-18.9071
-19.1333
-19.3491
-19.5531
-19.7438
-19.9196
-20.0791
-20.2212
-20.3448
-20.4492
14.6145
14.6104
14.5196
14.3342
14.0694
13.7342
13.3351
12.8804
12.3791
11.84
11.2714
10.6807
10.0748
9.4594
8.83966
8.21972
7.60302
6.99231
6.38978
5.79705
5.21534
4.6455
4.08808
3.54337
3.01148
2.49236
1.98583
1.49164
1.00944
0.53885
0.0794488
-0.369207
-0.807574
-1.23611
-1.65529
-2.06554
-2.46733
-2.86109
-3.24723
-3.62617
-3.99829
-4.36397
-4.72356
-5.07741
-5.42585
-5.76919
-6.10773
-6.44174
-6.77151
-7.09728
-7.4193
-7.7378
-8.05301
-8.36513
-8.67436
-8.98089
-9.28491
-9.58657
-9.88604
-10.1835
-10.479
-10.7728
-11.065
-11.3556
-11.6448
-11.9328
-12.2195
-12.5051
-12.7896
-13.0731
-13.3557
-13.6373
-13.918
-14.1978
-14.4767
-14.7546
-15.0314
-15.307
-15.5814
-15.8543
-16.1255
-16.3948
-16.6617
-16.926
-17.1872
-17.4447
-17.6978
-17.9459
-18.1882
-18.4236
-18.6512
-18.8698
-19.0783
-19.2754
-19.4598
-19.6303
-19.7858
-19.9252
-20.0479
-20.1532
13.7938
13.7901
13.7105
13.5479
13.3154
13.0199
12.6667
12.2623
11.8141
11.3296
10.8156
10.2787
9.72473
9.15905
8.58623
8.01019
7.43425
6.86112
6.29301
5.73166
5.17842
4.63429
4.10001
3.57605
3.06269
2.56007
2.06819
1.58695
1.11616
0.655575
0.204918
-0.236134
-0.667925
-1.09081
-1.50516
-1.91133
-2.30969
-2.70061
-3.08444
-3.46152
-3.8322
-4.19678
-4.5556
-4.90894
-5.25711
-5.60037
-5.93899
-6.27323
-6.60333
-6.92952
-7.25203
-7.57106
-7.88682
-8.1995
-8.50929
-8.81634
-9.12084
-9.42294
-9.72278
-10.0205
-10.3162
-10.6101
-10.9023
-11.1927
-11.4817
-11.7692
-12.0553
-12.3401
-12.6237
-12.9061
-13.1872
-13.4673
-13.7461
-14.0239
-14.3004
-14.5756
-14.8495
-15.1219
-15.3926
-15.6616
-15.9286
-16.1932
-16.4552
-16.7142
-16.9696
-17.2211
-17.4679
-17.7095
-17.945
-18.1736
-18.3943
-18.6062
-18.8083
-18.9995
-19.1787
-19.3449
-19.4971
-19.6347
-19.7569
-19.8634
13.0473
13.0438
12.9736
12.83
12.6243
12.3621
12.0475
11.6859
11.2834
10.846
10.3798
9.89024
9.38261
8.86158
8.33134
7.79553
7.25727
6.7192
6.18351
5.65198
5.12604
4.60681
4.09514
3.59164
3.09676
2.61075
2.13377
1.66584
1.20692
0.756896
0.315588
-0.117212
-0.541745
-0.958274
-1.36708
-1.76844
-2.16266
-2.55003
-2.93084
-3.30538
-3.67394
-4.03678
-4.39418
-4.7464
-5.0937
-5.43631
-5.77447
-6.10841
-6.43834
-6.76448
-7.08701
-7.40613
-7.72203
-8.03487
-8.34482
-8.65204
-8.95668
-9.25888
-9.55877
-9.85648
-10.1521
-10.4458
-10.7377
-11.0278
-11.3162
-11.6031
-11.8884
-12.1722
-12.4546
-12.7357
-13.0153
-13.2936
-13.5706
-13.8461
-14.1201
-14.3926
-14.6635
-14.9327
-15.1999
-15.465
-15.7278
-15.988
-16.2452
-16.499
-16.7491
-16.995
-17.236
-17.4715
-17.7009
-17.9233
-18.138
-18.3441
-18.5406
-18.7268
-18.9016
-19.0642
-19.214
-19.3501
-19.4722
-19.5801
12.3662
12.363
12.3006
12.1729
11.9897
11.7556
11.4739
11.1488
10.7856
10.3892
9.96475
9.51706
9.05067
8.56975
8.07809
7.57903
7.07549
6.57
6.06468
5.56132
5.06138
4.56605
4.07625
3.59273
3.11602
2.6465
2.18443
1.72997
1.28317
0.844018
0.412451
-0.0116504
-0.428437
-0.838088
-1.24081
-1.6368
-2.02631
-2.40955
-2.78676
-3.15818
-3.52404
-3.88458
-4.24002
-4.59058
-4.93649
-5.27794
-5.61515
-5.94831
-6.27761
-6.60324
-6.92538
-7.24418
-7.55981
-7.87244
-8.1822
-8.48923
-8.79368
-9.09566
-9.3953
-9.69271
-9.988
-10.2813
-10.5726
-10.8621
-11.1497
-11.4357
-11.72
-12.0027
-12.2838
-12.5634
-12.8414
-13.1178
-13.3927
-13.6659
-13.9374
-14.2072
-14.4751
-14.741
-15.0047
-15.266
-15.5248
-15.7806
-16.0333
-16.2823
-16.5274
-16.768
-17.0036
-17.2336
-17.4574
-17.6744
-17.8837
-18.0846
-18.2764
-18.4582
-18.6293
-18.7891
-18.9368
-19.0721
-19.1944
-19.3035
11.7433
11.7404
11.6845
11.5703
11.4061
11.1959
10.9422
10.6486
10.3193
9.9586
9.57084
9.16015
8.73051
8.28562
7.82887
7.36333
6.89171
6.41639
5.93941
5.46252
4.9872
4.51466
4.04589
3.58169
3.12269
2.66936
2.22206
1.78102
1.34639
0.918268
0.496659
0.0815336
-0.327181
-0.729591
-1.12583
-1.51603
-1.90038
-2.27904
-2.6522
-3.02004
-3.38274
-3.74051
-4.09352
-4.44197
-4.78603
-5.12589
-5.46171
-5.79367
-6.12194
-6.44667
-6.76801
-7.08612
-7.40114
-7.7132
-8.02243
-8.32896
-8.6329
-8.93437
-9.23348
-9.53032
-9.82498
-10.1175
-10.4081
-10.6967
-10.9835
-11.2684
-11.5515
-11.8329
-12.1125
-12.3904
-12.6666
-12.9411
-13.2138
-13.4847
-13.7536
-14.0206
-14.2856
-14.5482
-14.8085
-15.0661
-15.321
-15.5727
-15.8209
-16.0655
-16.3058
-16.5415
-16.7722
-16.9972
-17.216
-17.428
-17.6325
-17.8289
-18.0165
-18.1947
-18.3628
-18.5202
-18.6664
-18.8009
-18.9236
-19.0342
11.1725
11.1698
11.1195
11.0166
10.8687
10.6789
10.4493
10.1828
9.88298
9.55351
9.19802
8.8201
8.42324
8.01071
7.58555
7.15055
6.70821
6.26075
5.81013
5.35804
4.90592
4.45501
4.00632
3.5607
3.11883
2.68127
2.24843
1.82063
1.3981
0.981009
0.569435
0.163422
-0.237033
-0.631969
-1.02145
-1.40558
-1.78445
-2.15819
-2.52694
-2.89083
-3.25001
-3.60463
-3.95484
-4.3008
-4.64264
-4.98053
-5.3146
-5.64501
-5.97188
-6.29536
-6.61558
-6.93267
-7.24674
-7.55792
-7.86632
-8.17206
-8.47522
-8.77591
-9.07422
-9.37023
-9.66403
-9.95569
-10.2453
-10.5328
-10.8184
-11.1021
-11.3838
-11.6637
-11.9418
-12.2179
-12.4923
-12.7647
-13.0351
-13.3036
-13.57
-13.8342
-14.0961
-14.3556
-14.6125
-14.8666
-15.1176
-15.3654
-15.6095
-15.8498
-16.0857
-16.3169
-16.543
-16.7634
-16.9777
-17.1853
-17.3856
-17.578
-17.762
-17.937
-18.1025
-18.258
-18.403
-18.5372
-18.6603
-18.7723
10.6484
10.6459
10.6004
10.5074
10.3733
10.201
9.99221
9.74925
9.47517
9.17305
8.84601
8.49718
8.12958
7.74613
7.34954
6.94234
6.52682
6.10506
5.6789
5.24994
4.81962
4.38914
3.95953
3.53168
3.10629
2.68398
2.26521
1.85037
1.43975
1.03358
0.632004
0.235128
-0.156989
-0.54433
-0.926905
-1.30475
-1.67793
-2.04651
-2.41059
-2.77027
-3.12564
-3.47682
-3.82393
-4.16709
-4.50642
-4.84203
-5.17405
-5.50259
-5.82778
-6.14971
-6.46852
-6.7843
-7.09715
-7.40719
-7.7145
-8.01918
-8.32131
-8.62098
-8.91826
-9.21323
-9.50596
-9.7965
-10.0849
-10.3712
-10.6555
-10.9378
-11.218
-11.4963
-11.7726
-12.0469
-12.3193
-12.5895
-12.8577
-13.1237
-13.3875
-13.649
-13.9079
-14.1643
-14.4179
-14.6685
-14.916
-15.16
-15.4002
-15.6364
-15.8682
-16.0953
-16.3171
-16.5334
-16.7436
-16.9472
-17.1437
-17.3326
-17.5135
-17.6858
-17.8491
-18.0029
-18.147
-18.281
-18.4048
-18.5182
10.1667
10.1645
10.123
10.0384
9.9163
9.75921
9.56841
9.34595
9.09436
8.81628
8.51439
8.1914
7.84997
7.49266
7.12191
6.74
6.34904
5.95093
5.5474
5.14
4.73009
4.31884
3.90731
3.49635
3.08674
2.67909
2.27393
1.87169
1.47271
1.07726
0.685556
0.297754
-0.0860393
-0.465752
-0.841347
-1.21281
-1.58017
-1.94344
-2.30267
-2.65793
-3.00928
-3.35681
-3.7006
-4.04073
-4.37729
-4.71039
-5.04011
-5.36654
-5.68979
-6.00995
-6.3271
-6.64133
-6.95273
-7.26139
-7.56739
-7.87079
-8.17168
-8.47012
-8.76618
-9.05992
-9.35138
-9.64063
-9.9277
-10.2126
-10.4954
-10.7762
-11.0548
-11.3314
-11.6058
-11.8782
-12.1485
-12.4166
-12.6824
-12.946
-13.2072
-13.4659
-13.722
-13.9753
-14.2257
-14.473
-14.7169
-14.9573
-15.1939
-15.4263
-15.6543
-15.8775
-16.0955
-16.3079
-16.5144
-16.7144
-16.9076
-17.0934
-17.2715
-17.4415
-17.6029
-17.7555
-17.8988
-18.0328
-18.1571
-18.2719
9.72359
9.72148
9.68361
9.60622
9.49452
9.3506
9.1755
8.97095
8.73911
8.48223
8.20262
7.90264
7.58462
7.25084
6.90346
6.54456
6.17604
5.79967
5.41707
5.02969
4.63884
4.24566
3.85116
3.45624
3.06165
2.66805
2.27598
1.88591
1.49822
1.11324
0.73122
0.352354
-0.0231992
-0.395324
-0.76394
-1.12899
-1.49046
-1.84833
-2.20261
-2.55333
-2.90053
-3.24424
-3.58453
-3.92146
-4.25509
-4.58548
-4.91271
-5.23684
-5.55796
-5.87613
-6.19143
-6.50393
-6.81368
-7.12078
-7.42527
-7.72722
-8.02668
-8.32372
-8.61839
-8.91073
-9.20079
-9.48859
-9.77419
-10.0576
-10.3388
-10.6179
-10.8948
-11.1696
-11.4421
-11.7125
-11.9807
-12.2465
-12.51
-12.7711
-13.0297
-13.2857
-13.5389
-13.7893
-14.0366
-14.2807
-14.5214
-14.7583
-14.9914
-15.2203
-15.4447
-15.6643
-15.8788
-16.0877
-16.2908
-16.4876
-16.6777
-16.8609
-17.0366
-17.2045
-17.3643
-17.5158
-17.6586
-17.7926
-17.9176
-18.0336
9.31566
9.3137
9.27891
9.20784
9.10517
8.97274
8.81137
8.62254
8.40807
8.16993
7.9101
7.63064
7.3336
7.02099
6.69476
6.35677
6.00876
5.65237
5.28908
4.92027
4.54718
4.17091
3.79245
3.41267
3.03235
2.65213
2.2726
1.89424
1.51747
1.14264
0.770048
0.399926
0.0324685
-0.332169
-0.693866
-1.05253
-1.40811
-1.76055
-2.10983
-2.45594
-2.79889
-3.1387
-3.47538
-3.80898
-4.13954
-4.46708
-4.79168
-5.11337
-5.4322
-5.74824
-6.06153
-6.37213
-6.68009
-6.98546
-7.2883
-7.58864
-7.88654
-8.18204
-8.47518
-8.76599
-9.0545
-9.34075
-9.62475
-9.90652
-10.1861
-10.4634
-10.7385
-11.0114
-11.282
-11.5503
-11.8163
-12.0799
-12.3411
-12.5997
-12.8558
-13.1091
-13.3595
-13.607
-13.8514
-14.0924
-14.3299
-14.5636
-14.7934
-15.019
-15.24
-15.4563
-15.6675
-15.8733
-16.0733
-16.2671
-16.4546
-16.6353
-16.8089
-16.975
-17.1335
-17.284
-17.4264
-17.5604
-17.6861
-17.8033
8.94005
8.93823
8.90614
8.84057
8.7458
8.62342
8.4741
8.2991
8.09998
7.87844
7.63621
7.37507
7.09685
6.80332
6.49622
6.17724
5.84796
5.50989
5.1644
4.81278
4.4562
4.09573
3.73232
3.36681
2.99998
2.63248
2.26491
1.89777
1.53149
1.16647
0.80301
0.441393
0.0818428
-0.275453
-0.630342
-0.9827
-1.33243
-1.67946
-2.02373
-2.36522
-2.70388
-3.03972
-3.37273
-3.70293
-4.03032
-4.35493
-4.67679
-4.99592
-5.31237
-5.62615
-5.93732
-6.2459
-6.55194
-6.85547
-7.15653
-7.45515
-7.75137
-8.04521
-8.33671
-8.62589
-8.91276
-9.19735
-9.47967
-9.75973
-10.0375
-10.313
-10.5863
-10.8572
-11.1258
-11.3921
-11.6559
-11.9173
-12.1761
-12.4323
-12.6858
-12.9365
-13.1843
-13.429
-13.6704
-13.9085
-14.143
-14.3737
-14.6004
-14.8228
-15.0408
-15.254
-15.4621
-15.665
-15.8622
-16.0534
-16.2384
-16.4169
-16.5886
-16.7532
-16.9105
-17.0602
-17.2023
-17.3365
-17.4627
-17.5811
8.59427
8.59257
8.56284
8.5021
8.41425
8.30069
8.16199
7.99918
7.81365
7.60685
7.38029
7.13554
6.87421
6.59788
6.3081
6.0064
5.69422
5.37294
5.04383
4.7081
4.36686
4.02111
3.67177
3.31968
2.96557
2.61012
2.25391
1.89747
1.54124
1.18564
0.830993
0.477609
0.125739
-0.224401
-0.572629
-0.918793
-1.26277
-1.60445
-1.94375
-2.28062
-2.615
-2.94686
-3.27617
-3.60292
-3.9271
-4.24872
-4.56777
-4.88427
-5.19824
-5.50969
-5.81865
-6.12513
-6.42916
-6.73076
-7.02995
-7.32676
-7.62121
-7.91331
-8.20308
-8.49054
-8.7757
-9.05856
-9.33913
-9.61741
-9.89339
-10.167
-10.4384
-10.7074
-10.9739
-11.2381
-11.4998
-11.7589
-12.0154
-12.2692
-12.5203
-12.7684
-13.0135
-13.2555
-13.4942
-13.7295
-13.9611
-14.1889
-14.4127
-14.6322
-14.8472
-15.0576
-15.2629
-15.4631
-15.6577
-15.8466
-16.0294
-16.2059
-16.3759
-16.5391
-16.6953
-16.8444
-16.9862
-17.1205
-17.2474
-17.3668
8.27611
8.27451
8.24686
8.19036
8.1086
8.00282
7.87347
7.72146
7.54798
7.35429
7.14172
6.91165
6.66549
6.40466
6.13057
5.84457
5.54798
5.24207
4.92803
4.60697
4.27993
3.94787
3.61168
3.27215
2.93002
2.58593
2.24049
1.89422
1.54758
1.20099
0.854807
0.509354
0.164906
-0.178295
-0.520043
-0.86016
-1.1985
-1.53492
-1.86933
-2.20164
-2.53177
-2.85966
-3.18528
-3.50857
-3.82952
-4.14811
-4.46432
-4.77815
-5.08959
-5.39866
-5.70534
-6.00966
-6.31161
-6.61122
-6.90848
-7.20341
-7.49602
-7.78632
-8.0743
-8.35999
-8.64337
-8.92445
-9.20323
-9.47968
-9.75381
-10.0256
-10.295
-10.562
-10.8265
-11.0886
-11.3481
-11.605
-11.8592
-12.1107
-12.3593
-12.605
-12.8476
-13.087
-13.323
-13.5556
-13.7845
-14.0095
-14.2305
-14.4473
-14.6597
-14.8673
-15.0701
-15.2678
-15.4601
-15.6467
-15.8275
-16.0023
-16.1708
-16.3327
-16.488
-16.6365
-16.7781
-16.9126
-17.04
-17.1604
7.98363
7.98213
7.95631
7.90355
7.82715
7.72824
7.60718
7.46474
7.30196
7.11995
6.91987
6.70295
6.47044
6.2236
5.96369
5.69196
5.40959
5.11775
4.81754
4.50999
4.19609
3.87674
3.55279
3.225
2.8941
2.56071
2.22544
1.8888
1.55127
1.21327
0.875181
0.537337
0.200032
-0.136472
-0.471948
-0.806196
-1.13904
-1.47034
-1.79995
-2.12778
-2.45371
-2.77769
-3.09963
-3.41949
-3.73722
-4.05277
-4.36613
-4.67727
-4.98617
-5.29281
-5.5972
-5.89931
-6.19915
-6.49672
-6.79201
-7.08501
-7.37574
-7.66419
-7.95035
-8.23422
-8.51579
-8.79505
-9.072
-9.34661
-9.61886
-9.88873
-10.1562
-10.4212
-10.6837
-10.9437
-11.2011
-11.4558
-11.7078
-11.957
-12.2032
-12.4465
-12.6866
-12.9235
-13.157
-13.387
-13.6133
-13.8357
-14.0542
-14.2684
-14.4782
-14.6834
-14.8838
-15.0791
-15.2692
-15.4539
-15.6329
-15.806
-15.9731
-16.134
-16.2885
-16.4364
-16.5778
-16.7125
-16.8404
-16.9616
7.71514
7.71372
7.68952
7.64006
7.56841
7.47558
7.36185
7.22791
7.07465
6.90306
6.71416
6.50903
6.28879
6.05457
5.80751
5.54872
5.2793
5.00032
4.71278
4.41767
4.1159
3.80832
3.49574
3.17891
2.8585
2.53515
2.20945
1.8819
1.553
1.22316
0.892779
0.562202
0.23174
-0.0983308
-0.427763
-0.75634
-1.08387
-1.41018
-1.73512
-2.05856
-2.3804
-2.70052
-3.01885
-3.33532
-3.64985
-3.9624
-4.27291
-4.58136
-4.88771
-5.19193
-5.494
-5.79389
-6.0916
-6.3871
-6.68039
-6.97145
-7.26027
-7.54684
-7.83114
-8.11317
-8.39291
-8.67034
-8.94544
-9.21819
-9.48856
-9.75652
-10.022
-10.2851
-10.5456
-10.8035
-11.0588
-11.3114
-11.5611
-11.8081
-12.052
-12.293
-12.5307
-12.7652
-12.9963
-13.2238
-13.4476
-13.6676
-13.8836
-14.0954
-14.3028
-14.5057
-14.7039
-14.8971
-15.0852
-15.2681
-15.4454
-15.617
-15.7829
-15.9427
-16.0965
-16.244
-16.3852
-16.52
-16.6484
-16.7704
7.46913
7.46779
7.44502
7.39847
7.33102
7.24358
7.13637
7.00998
6.86521
6.70292
6.52402
6.32947
6.12026
5.89742
5.66197
5.41493
5.15729
4.89004
4.61412
4.33043
4.03983
3.74313
3.44109
3.13444
2.82382
2.50987
2.19313
1.87415
1.55338
1.23126
0.908195
0.584533
0.260598
-0.0633192
-0.386956
-0.71008
-1.03248
-1.35397
-1.67438
-1.99357
-2.31141
-2.62777
-2.94257
-3.2557
-3.56709
-3.87666
-4.18437
-4.49016
-4.79397
-5.09577
-5.39552
-5.6932
-5.98877
-6.2822
-6.57348
-6.86258
-7.14948
-7.43416
-7.7166
-7.99678
-8.27467
-8.55026
-8.82351
-9.0944
-9.36289
-9.62895
-9.89254
-10.1536