/*--------------------------------*- C++ -*----------------------------------*\
| =========                 |                                                 |
| \\      /  F ield         | OpenFOAM: The Open Source CFD Toolbox           |
|  \\    /   O peration     | Version:  2406                                  |
|   \\  /    A nd           | Website:  www.openfoam.com                      |
|    \\/     M anipulation  |                                                 |
\*---------------------------------------------------------------------------*/
FoamFile
{
    version     2.0;
    format      ascii;
    arch        "LSB;label=32;scalar=64";
    class       surfaceScalarField;
    location    "700";
    object      phi;
}
// * * * * * * * * * * * * * * * * * * * * * * * * * * * * * * * * * * * * * //

dimensions      [0 3 -1 0 0 0 0];

oriented        oriented;

internalField   nonuniform List<scalar> 
299000
(
0.0796643
0.0203357
0.0586791
0.0209853
0.0442545
0.0144246
0.0348016
0.00945287
0.0284996
0.00630206
0.0241892
0.0043104
0.0211373
0.00305183
0.0188877
0.00224965
0.0171636
0.0017241
0.0157972
0.00136635
0.0146842
0.001113
0.0137572
0.000927004
0.0129712
0.000786064
0.0122948
0.000676343
0.0117059
0.000588966
0.0111878
0.000518048
0.0107283
0.000459561
0.0103176
0.000410667
0.00994828
0.00036931
0.0096143
0.000333971
0.0093108
0.000303503
0.00903378
0.000277023
0.00877993
0.000253846
0.0085465
0.000233429
0.00833116
0.000215338
0.00813194
0.000199222
0.00794715
0.000184796
0.00777532
0.000171825
0.00761521
0.000160113
0.00746571
0.000149498
0.00732587
0.000139843
0.00719484
0.000131031
0.00707187
0.000122964
0.00695631
0.000115557
0.00684758
0.000108738
0.00674513
0.000102443
0.00664852
9.66177e-05
0.0065573
9.12144e-05
0.00647111
8.61914e-05
0.0063896
8.15117e-05
0.00631245
7.71429e-05
0.0062394
7.30563e-05
0.00617017
6.92263e-05
0.00610454
6.563e-05
0.0060423
6.22469e-05
0.00598324
5.90588e-05
0.00592719
5.60491e-05
0.00587398
5.32029e-05
0.00582348
5.05065e-05
0.00577553
4.79478e-05
0.00573001
4.55154e-05
0.00568681
4.31992e-05
0.00564583
4.09896e-05
0.00560695
3.88779e-05
0.00557009
3.68562e-05
0.00553517
3.49168e-05
0.00550212
3.3053e-05
0.00547086
3.12581e-05
0.00544134
2.95261e-05
0.00541349
2.7851e-05
0.00538726
2.62275e-05
0.00536261
2.46501e-05
0.00533949
2.31139e-05
0.00531788
2.16138e-05
0.00529774
2.01449e-05
0.00527903
1.87025e-05
0.00526175
1.72818e-05
0.00524587
1.58778e-05
0.00523139
1.44857e-05
0.00521829
1.31004e-05
0.00520657
1.17163e-05
0.00519624
1.0328e-05
0.00518731
8.92919e-06
0.0051798
7.51329e-06
0.00517373
6.07297e-06
0.00516913
4.60002e-06
0.00516604
3.08517e-06
0.00516452
1.51776e-06
0.00516464
-1.14554e-07
0.00516646
-1.8264e-06
0.0051701
-3.63521e-06
0.00517566
-5.56207e-06
0.00518329
-7.63292e-06
0.00519317
-9.88022e-06
0.00520552
-1.23455e-05
0.0052206
-1.50834e-05
0.00523877
-1.81682e-05
0.00526048
-2.17057e-05
0.00528633
-2.58548e-05
0.0053172
-3.08692e-05
0.00535438
-3.71813e-05
0.00539995
-4.55717e-05
0.00545747
-5.75218e-05
0.00553343
-7.59597e-05
0.00564034
-0.000106906
0.00580338
-0.000163039
0.0060739
-0.000270517
0.00655806
-0.000484163
0.0075197
-0.000961638
-0.00227645
0.00979614
0.105208
0.0151279
0.100188
0.0260052
0.0901924
0.02442
0.0797498
0.0198955
0.0705672
0.0154847
0.0629852
0.0118924
0.0568424
0.00919456
0.0518617
0.00723036
0.0477849
0.00580096
0.0444043
0.00474696
0.0415621
0.00395518
0.039141
0.0033481
0.0370538
0.00287321
0.0352354
0.00249473
0.0336364
0.00218798
0.0322188
0.00193566
0.030953
0.00172536
0.0298156
0.00154806
0.0287879
0.00139704
0.0278546
0.00126723
0.0270034
0.00115474
0.0262239
0.00105655
0.0255074
0.000970277
0.0248468
0.00089401
0.024236
0.000826222
0.0236695
0.000765669
0.023143
0.000711327
0.0226525
0.000662352
0.0221945
0.00061804
0.0217662
0.000577799
0.0213649
0.00054113
0.0209884
0.000507609
0.0206345
0.000476874
0.0203014
0.000448613
0.0199876
0.000422559
0.0196915
0.000398479
0.019412
0.000376169
0.0191478
0.000355454
0.0188978
0.000336176
0.0186611
0.000318198
0.0184368
0.000301401
0.0182242
0.000285675
0.0180225
0.000270925
0.0178311
0.000257065
0.0176493
0.000244018
0.0174766
0.000231716
0.0173126
0.000220096
0.0171567
0.000209101
0.0170085
0.000198681
0.0168677
0.000188789
0.0167338
0.000179382
0.0166066
0.000170422
0.0164857
0.000161873
0.0163709
0.000153701
0.0162619
0.000145876
0.0161584
0.000138371
0.0160603
0.000131158
0.0159673
0.000124212
0.0158794
0.000117511
0.0157962
0.000111033
0.0157177
0.000104756
0.0156436
9.86604e-05
0.015574
9.2727e-05
0.0155087
8.69369e-05
0.0154476
8.12719e-05
0.0153906
7.57137e-05
0.0153376
7.02444e-05
0.0152886
6.48456e-05
0.0152436
5.9499e-05
0.0152025
5.41852e-05
0.0151654
4.88844e-05
0.0151321
4.35754e-05
0.0151028
3.82356e-05
0.0150775
3.28405e-05
0.0150562
2.73631e-05
0.015039
2.17732e-05
0.0150261
1.60367e-05
0.0150175
1.01147e-05
0.0150134
3.96178e-06
0.015014
-2.47533e-06
0.0150197
-9.26041e-06
0.0150306
-1.64708e-05
0.0150471
-2.42019e-05
0.0150698
-3.25733e-05
0.0150992
-4.17388e-05
0.0151361
-5.19005e-05
0.0151812
-6.33329e-05
0.0152359
-7.64219e-05
0.0153018
-9.17333e-05
0.0153811
-0.000110134
0.0154769
-0.000133015
0.015594
-0.000162701
0.0157397
-0.000203226
0.0159256
-0.000261793
0.0161702
-0.000351534
0.0165036
-0.000496489
0.0169731
-0.000739969
0.0176496
-0.0011607
0.0185975
-0.00190954
-0.00320721
0.0195283
0.105142
0.00998561
0.10894
0.0222075
0.107707
0.0256529
0.103023
0.0245794
0.0967852
0.0217227
0.0902286
0.018449
0.0840027
0.0154204
0.0783697
0.0128634
0.0733848
0.0107859
0.0690106
0.00912116
0.0651765
0.00778923
0.0618067
0.0067179
0.0588314
0.00584855
0.0561903
0.00513582
0.053833
0.00454528
0.0517177
0.00405093
0.0498101
0.00363306
0.0480815
0.00327664
0.0465084
0.00297012
0.0450711
0.00270449
0.0437532
0.00247271
0.0425406
0.00226916
0.0414215
0.00208937
0.0403858
0.00192969
0.0394248
0.00178719
0.0385311
0.00165943
0.037698
0.00154439
0.0369199
0.00144041
0.0361919
0.00134607
0.0355095
0.00126019
0.0348689
0.00118175
0.0342666
0.0011099
0.0336996
0.0010439
0.0331651
0.000983105
0.0326607
0.000926965
0.0321841
0.000874999
0.0317335
0.000826787
0.031307
0.000781961
0.030903
0.000740196
0.03052
0.000701204
0.0301567
0.000664733
0.0298118
0.000630555
0.0294842
0.000598469
0.029173
0.000568294
0.0288772
0.000539867
0.0285958
0.000513043
0.0283282
0.000487688
0.0280737
0.000463684
0.0278314
0.000440922
0.0276009
0.000419302
0.0273816
0.000398734
0.0271728
0.000379134
0.0269743
0.000360427
0.0267854
0.000342541
0.0266059
0.000325412
0.0264353
0.000308978
0.0262733
0.000293183
0.0261195
0.000277974
0.0259737
0.000263302
0.0258356
0.000249117
0.025705
0.000235377
0.0255816
0.000222038
0.0254653
0.000209058
0.0253559
0.000196397
0.0252531
0.000184016
0.0251569
0.000171876
0.0250672
0.000159939
0.0249839
0.000148167
0.0249069
0.000136518
0.0248361
0.000124954
0.0247716
0.000113431
0.0247133
0.000101906
0.0246612
9.03306e-05
0.0246154
7.86533e-05
0.0245759
6.68179e-05
0.0245429
5.47615e-05
0.0245165
4.24133e-05
0.024497
2.96926e-05
0.0244844
1.65055e-05
0.0244792
2.74219e-06
0.0244817
-1.17287e-05
0.0244923
-2.70658e-05
0.0245115
-4.34646e-05
0.0245401
-6.11698e-05
0.0245789
-8.04942e-05
0.0246288
-0.000101847
0.0246913
-0.000125777
0.0247679
-0.000153045
0.0248609
-0.000184737
0.0249732
-0.000222459
0.0251089
-0.000268665
0.0252734
-0.000327221
0.0254745
-0.000404361
0.025723
-0.000510313
0.0260334
-0.000661936
0.0264237
-0.000886712
0.0269116
-0.00122796
0.0275012
-0.00175026
0.0281295
-0.00253785
-0.00363897
0.0285613
0.103312
0.00667355
0.108501
0.0170185
0.111574
0.02258
0.111771
0.0243819
0.109656
0.0238383
0.106063
0.0220414
0.101729
0.0197545
0.0971646
0.0174281
0.0926731
0.0152773
0.0884138
0.0133805
0.0844559
0.0117472
0.0808177
0.0103561
0.0774909
0.00917534
0.0744546
0.00817211
0.0716832
0.0073167
0.0691504
0.00658375
0.0668312
0.00595226
0.0647028
0.00540502
0.0627448
0.00492808
0.0609393
0.00451008
0.0592702
0.00414177
0.0577237
0.00381561
0.0562877
0.0035254
0.0549514
0.003266
0.0537054
0.00303318
0.0525415
0.00282337
0.0514523
0.00263361
0.0504313
0.00246138
0.0494728
0.00230455
0.0485717
0.0021613
0.0477234
0.00203007
0.0469238
0.00190952
0.0461692
0.0017985
0.0454563
0.00169599
0.0447821
0.00160113
0.044144
0.00151315
0.0435394
0.00143136
0.0429661
0.0013552
0.0424222
0.00128411
0.0419058
0.00121765
0.0414151
0.0011554
0.0409487
0.00109699
0.0405051
0.00104209
0.040083
0.000990397
0.0396812
0.00094165
0.0392986
0.000895606
0.0389342
0.000852046
0.0385872
0.000810772
0.0382565
0.000771603
0.0379414
0.000734374
0.0376412
0.000698934
0.0373552
0.000665143
0.0370827
0.000632874
0.0368233
0.000602009
0.0365763
0.000572437
0.0363412
0.000544058
0.0361176
0.000516775
0.0359051
0.0004905
0.0357032
0.000465148
0.0355117
0.000440639
0.0353302
0.000416899
0.0351583
0.000393854
0.034996
0.000371434
0.0348428
0.000349573
0.0346986
0.000328203
0.0345632
0.00030726
0.0344365
0.000286679
0.0343183
0.000266396
0.0342084
0.000246343
0.0341069
0.000226453
0.0340137
0.000206657
0.0339287
0.000186879
0.033852
0.000167042
0.0337836
0.000147061
0.0337236
0.000126842
0.0336721
0.000106283
0.0336292
8.52679e-05
0.0335952
6.36657e-05
0.0335704
4.13244e-05
0.0335551
1.80666e-05
0.0335497
-6.31846e-06
0.0335547
-3.20846e-05
0.0335708
-5.95423e-05
0.0335987
-8.90781e-05
0.0336394
-0.000121182
0.033694
-0.000156486
0.0337641
-0.00019583
0.0338514
-0.000240346
0.0339582
-0.000291614
0.0340877
-0.000351879
0.0342434
-0.000424424
0.0344303
-0.000514139
0.0346544
-0.000628409
0.0349225
-0.000778452
0.0352418
-0.000981167
0.0356164
-0.00126132
0.0360415
-0.00165306
0.0364894
-0.00219817
0.036885
-0.00293351
-0.00384859
0.0370947
0.102077
0.00459611
0.106348
0.0127484
0.110418
0.0185095
0.113045
0.0217545
0.113911
0.0229728
0.113195
0.0227574
0.111291
0.0216589
0.10861
0.0201088
0.105491
0.0183958
0.10218
0.0166918
0.0988394
0.0150878
0.095571
0.0136245
0.0924334
0.0123129
0.0894568
0.0111487
0.0866534
0.0101201
0.0840246
0.00921252
0.0815656
0.00841127
0.079268
0.00770261
0.0771219
0.00707419
0.0751167
0.00651523
0.0732421
0.00601642
0.0714879
0.00556978
0.0698448
0.00516851
0.068304
0.00480679
0.0668575
0.00447967
0.065498
0.00418291
0.0642187
0.00391289
0.0630136
0.0036665
0.0618771
0.00344103
0.0608043
0.00323418
0.0597904
0.00304392
0.0588314
0.00286851
0.0579235
0.00270641
0.0570632
0.00255629
0.0562474
0.00241697
0.0554731
0.00228741
0.0547378
0.00216669
0.054039
0.002054
0.0533745
0.00194861
0.0527422
0.00184989
0.0521404
0.00175725
0.0515672
0.00167018
0.0510211
0.00158821
0.0505005
0.00151092
0.0500043
0.00143793
0.049531
0.00136891
0.0490795
0.00130352
0.0486488
0.00124151
0.0482378
0.00118259
0.0478456
0.00112654
0.0474714
0.00107313
0.0471144
0.00102218
0.0467738
0.000973476
0.0464489
0.000926864
0.0461392
0.000882181
0.0458439
0.000839277
0.0455627
0.000798013
0.045295
0.000758258
0.0450402
0.00071989
0.0447981
0.00068279
0.0445681
0.000646849
0.04435
0.000611959
0.0441434
0.000578018
0.0439481
0.000544927
0.0437637
0.000512588
0.04359
0.000480906
0.0434269
0.000449786
0.0432742
0.000419132
0.0431317
0.000388848
0.0429993
0.000358836
0.042877
0.000328992
0.0427646
0.00029921
0.0426623
0.000269376
0.04257
0.000239367
0.0424878
0.000209049
0.0424158
0.000178277
0.0423542
0.000146885
0.0423032
0.000114687
0.042263
8.14695e-05
0.0422341
4.6983e-05
0.0422168
1.09343e-05
0.0422118
-2.70277e-05
0.0422196
-6.7329e-05
0.042241
-0.000110495
0.042277
-0.000157183
0.0423287
-0.000208231
0.0423976
-0.000264729
0.0424854
-0.000328115
0.0425941
-0.000400331
0.0427263
-0.000484046
0.0428848
-0.000582987
0.0430731
-0.000702421
0.0432945
-0.000849829
0.0435519
-0.00103579
0.0438457
-0.00127496
0.0441711
-0.00158677
0.0445128
-0.00199476
0.044837
-0.00252238
0.0450848
-0.00318131
-0.00394622
0.0451825
0.101292
0.00330393
0.104405
0.00963573
0.108104
0.0148104
0.111405
0.0184537
0.113751
0.0206264
0.114945
0.0215636
0.115039
0.0215648
0.114219
0.0209284
0.112711
0.0199042
0.110725
0.0186778
0.108436
0.0173768
0.105978
0.0160823
0.103449
0.014842
0.100917
0.0136809
0.0984273
0.0126098
0.0960095
0.0116303
0.0936813
0.0107395
0.0914523
0.00993157
0.0893269
0.00919958
0.0873057
0.00853641
0.085387
0.00793511
0.0835676
0.00738919
0.0818434
0.00689271
0.0802099
0.00644035
0.0786622
0.00602735
0.0771956
0.0056495
0.0758054
0.00530308
0.0744871
0.00498479
0.0732364
0.00469173
0.0720492
0.00442136
0.0709217
0.00417141
0.0698504
0.00393989
0.0688317
0.00372503
0.0678628
0.00352526
0.0669405
0.0033392
0.0660624
0.00316559
0.0652257
0.00300333
0.0644283
0.00285143
0.0636679
0.002709
0.0629426
0.00257524
0.0622504
0.00244944
0.0615896
0.00233095
0.0609586
0.00221917
0.060356
0.00211358
0.0597802
0.0020137
0.05923
0.00191908
0.0587042
0.00182932
0.0582017
0.00174406
0.0577213
0.00166295
0.0572622
0.0015857
0.0568233
0.001512
0.0564039
0.00144161
0.0560031
0.00137427
0.0556202
0.00130977
0.0552545
0.00124788
0.0549053
0.00118841
0.0545722
0.00113118
0.0542544
0.00107601
0.0539516
0.00102273
0.0536632
0.000971204
0.0533888
0.000921266
0.0531279
0.000872779
0.0528803
0.000825604
0.0526457
0.000779609
0.0524236
0.000734662
0.0522139
0.000690637
0.0520162
0.000647405
0.0518305
0.000604838
0.0516566
0.000562808
0.0514942
0.000521183
0.0513434
0.000479825
0.051204
0.000438594
0.051076
0.000397337
0.0509595
0.000355893
0.0508545
0.000314087
0.050761
0.000271727
0.0506793
0.000228598
0.0506095
0.000184459
0.050552
0.000139036
0.050507
9.20097e-05
0.0504749
4.3009e-05
0.0504563
-8.40753e-06
0.0504517
-6.27699e-05
0.0504619
-0.000120724
0.0504878
-0.000183067
0.0505304
-0.000250798
0.0505908
-0.000325188
0.0506706
-0.000407876
0.0507713
-0.000501007
0.0508947
-0.000607423
0.0510426
-0.000730922
0.0512168
-0.00087661
0.0514183
-0.00105133
0.0516466
-0.00126411
0.0518981
-0.00152652
0.0521638
-0.00185246
0.0524258
-0.00225669
0.0526541
-0.00275072
0.0528074
-0.00333458
-0.00398334
0.0528445
0.100819
0.00248543
0.103016
0.00743871
0.105987
0.0118389
0.109099
0.0153417
0.111865
0.01786
0.113984
0.0194453
0.115324
0.0202242
0.11589
0.0203625
0.115765
0.0200292
0.115069
0.019374
0.113929
0.0185174
0.11246
0.0175506
0.110764
0.0165387
0.108918
0.015526
0.106987
0.0145408
0.105017
0.0136003
0.103043
0.0127136
0.10109
0.0118847
0.0991757
0.0111141
0.0973118
0.0104003
0.0955064
0.00974055
0.0937642
0.00913141
0.0920877
0.00856922
0.0904778
0.00805026
0.0889342
0.00757093
0.0874559
0.00712784
0.0860411
0.0067178
0.084688
0.00633791
0.0833943
0.00598548
0.0821575
0.00565809
0.0809754
0.00535353
0.0798455
0.00506982
0.0787654
0.00480513
0.0777328
0.00455786
0.0767455
0.00432651
0.0758013
0.00410977
0.0748982
0.00390644
0.0740342
0.00371541
0.0732075
0.00353572
0.0724163
0.00336645
0.0716589
0.00320679
0.0709338
0.00305601
0.0702396
0.00291343
0.0695747
0.00277843
0.068938
0.00265045
0.0683281
0.00252897
0.0677439
0.00241351
0.0671843
0.00230364
0.0666483
0.00219895
0.0661349
0.00209908
0.0656433
0.00200367
0.0651725
0.00191242
0.0647217
0.00182501
0.0642903
0.00174119
0.0638775
0.00166068
0.0634827
0.00158324
0.0631052
0.00150865
0.0627445
0.00143669
0.0624001
0.00136715
0.0620714
0.00129985
0.0617581
0.00123459
0.0614597
0.00117121
0.0611758
0.00110951
0.060906
0.00104935
0.0606502
0.000990549
0.0604078
0.000932954
0.0601788
0.000876402
0.0599629
0.000820734
0.05976
0.000765789
0.0595697
0.000711399
0.0593922
0.000657396
0.0592272
0.000603601
0.0590747
0.000549827
0.0589347
0.000495873
0.0588073
0.000441524
0.0586924
0.000386544
0.0585904
0.000330671
0.0585012
0.000273613
0.0584252
0.000215039
0.0583627
0.000154568
0.0583139
9.17612e-05
0.0582794
2.61e-05
0.0582597
-4.30296e-05
0.0582553
-0.000116366
0.058267
-0.000194808
0.0582957
-0.000279459
0.0583422
-0.000371694
0.0584076
-0.00047324
0.0584928
-0.000586291
0.0585991
-0.000713646
0.058727
-0.000858896
0.0588771
-0.00102664
0.0590484
-0.00122268
0.0592385
-0.00145423
0.0594418
-0.00172979
0.059648
-0.00205864
0.0598406
-0.00244925
0.059996
-0.00290615
0.0600861
-0.00342473
-0.00398456
0.0600874
0.100541
0.00194462
0.102093
0.00588668
0.104369
0.00956239
0.106997
0.0127139
0.10963
0.0152267
0.111998
0.017078
0.113919
0.0183028
0.115305
0.0189766
0.116139
0.0191955
0.116453
0.0190595
0.11631
0.0186606
0.115782
0.0180781
0.114945
0.0173761
0.113867
0.0166043
0.112608
0.0157998
0.111219
0.014989
0.109742
0.0141904
0.108211
0.0134162
0.106651
0.012674
0.105083
0.0119682
0.103523
0.0113008
0.101982
0.0106723
0.100469
0.0100819
0.0989911
0.00952853
0.0975517
0.00901032
0.0961541
0.00852537
0.0948003
0.00807163
0.0934912
0.00764704
0.0922271
0.00724959
0.0910078
0.00687734
0.0898329
0.00652847
0.0887014
0.00620124
0.0876125
0.00589405
0.086565
0.0056054
0.0855576
0.00533393
0.084589
0.00507834
0.083658
0.00483747
0.0827632
0.00461022
0.0819033
0.00439562
0.081077
0.00419273
0.0802831
0.00400071
0.0795203
0.00381879
0.0787875
0.00364625
0.0780835
0.00348243
0.0774072
0.00332672
0.0767576
0.00317856
0.0761337
0.00303742
0.0755345
0.00290282
0.0749591
0.00277432
0.0744067
0.00265149
0.0738764
0.00253395
0.0733675
0.00242133
0.0728792
0.0023133
0.0724109
0.00220955
0.0719618
0.00210976
0.0715314
0.00201366
0.071119
0.00192099
0.0707242
0.00183149
0.0703465
0.00174493
0.0699852
0.00166107
0.0696401
0.0015797
0.0693107
0.00150061
0.0689966
0.0014236
0.0686975
0.00134845
0.0684131
0.00127499
0.068143
0.00120302
0.0678871
0.00113234
0.067645
0.00106278
0.0674167
0.000994122
0.0672019
0.000926185
0.0670006
0.000858762
0.0668125
0.000791643
0.0666377
0.000724605
0.0664762
0.000657413
0.0663279
0.000589813
0.0661929
0.000521529
0.0660713
0.000452258
0.0659633
0.000381662
0.065869
0.000309362
0.0657886
0.000234927
0.0657225
0.000157862
0.065671
7.75895e-05
0.0656345
-6.56383e-06
0.0656136
-9.5398e-05
0.0656086
-0.000189869
0.0656203
-0.000291132
0.0656492
-0.000400589
0.0656959
-0.000519959
0.065761
-0.000651358
0.0658447
-0.000797393
0.0659471
-0.00096127
0.0660674
-0.0011469
0.0662037
-0.00135898
0.0663524
-0.00160293
0.0665073
-0.00188468
0.0666586
-0.00221001
0.0667927
-0.00258327
0.0668917
-0.00300519
0.0669368
-0.00346983
-0.00396145
0.0669137
0.100374
0.00157029
0.101489
0.00477185
0.103211
0.00784101
0.105327
0.0105975
0.107614
0.0129399
0.109868
0.0148242
0.111925
0.0162455
0.113672
0.0172295
0.115044
0.0178233
0.116019
0.0180847
0.116604
0.018075
0.11683
0.0178525
0.116736
0.0174697
0.116369
0.0169716
0.115774
0.0163951
0.114993
0.0157694
0.114066
0.0151173
0.113027
0.014456
0.111903
0.013798
0.110718
0.0131523
0.109494
0.0125252
0.108246
0.0119206
0.106986
0.0113411
0.105727
0.010788
0.104475
0.0102618
0.103239
0.0097622
0.102022
0.00928875
0.100828
0.00884057
0.099661
0.00841663
0.0985225
0.00801576
0.0974142
0.00763679
0.096337
0.0072785
0.0952913
0.00693969
0.0942775
0.00661919
0.0932956
0.00631588
0.0923452
0.00602868
0.0914261
0.00575658
0.0905377
0.00549861
0.0896795
0.00525386
0.0888507
0.00502149
0.0880508
0.00480069
0.0872788
0.00459071
0.0865342
0.00439087
0.0858161
0.00420051
0.0851239
0.00401901
0.0844566
0.00384582
0.0838136
0.00368038
0.0831942
0.00352221
0.0825977
0.00337084
0.0820234
0.00322583
0.0814705
0.00308677
0.0809386
0.00295327
0.0804269
0.00282497
0.0799349
0.00270153
0.0794621
0.00258261
0.0790078
0.00246792
0.0785717
0.00235716
0.0781531
0.00225005
0.0777517
0.00214633
0.077367
0.00204574
0.0769987
0.00194804
0.0766463
0.00185299
0.0763096
0.00176036
0.0759881
0.00166992
0.0756817
0.00158145
0.0753899
0.00149474
0.0751127
0.00140957
0.0748498
0.00132572
0.0746009
0.00124296
0.074366
0.00116108
0.0741449
0.00107984
0.0739376
0.000999008
0.0737439
0.000918322
0.0735638
0.000837518
0.0733973
0.00075631
0.0732444
0.000674389
0.0731052
0.000591416
0.0729799
0.000507015
0.0728685
0.000420771
0.0727712
0.000332213
0.0726882
0.000240805
0.0726199
0.000145935
0.0725664
4.68899e-05
0.0725282
-5.71583e-05
0.0725055
-0.000167185
0.0724987
-0.000284343
0.0725081
-0.000410004
0.072534
-0.000545802
0.0725763
-0.00069369
0.0726349
-0.00085599
0.0727091
-0.00103545
0.0727974
-0.00123525
0.0728975
-0.00145902
0.0730052
-0.00171067
0.0731147
-0.00199412
0.0732173
-0.00231269
0.0733022
-0.00266817
0.0733564
-0.00305936
0.073367
-0.00348043
-0.00391946
0.073325
0.10027
0.00130008
0.10109
0.00395184
0.102397
0.00653383
0.104073
0.00892209
0.105976
0.0110368
0.107966
0.0128338
0.109917
0.0142944
0.111726
0.0154211
0.113316
0.0162329
0.114641
0.01676
0.115677
0.0170387
0.116422
0.0171077
0.116887
0.0170049
0.117093
0.0167656
0.117067
0.0164212
0.116837
0.0159987
0.116434
0.0155208
0.115884
0.0150058
0.115214
0.0144685
0.114445
0.0139206
0.113599
0.013371
0.112694
0.0128265
0.111743
0.0122919
0.11076
0.011771
0.109755
0.0112661
0.108739
0.010779
0.107717
0.0103104
0.106697
0.009861
0.105682
0.00943074
0.104679
0.00901947
0.103689
0.00862677
0.102715
0.00825212
0.10176
0.00789487
0.100825
0.00755432
0.0999109
0.00722975
0.0990192
0.0069204
0.0981503
0.00662552
0.0973045
0.00634436
0.0964822
0.00607622
0.0956833
0.00582038
0.0949078
0.00557616
0.0941556
0.00534292
0.0934264
0.00512005
0.09272
0.00490694
0.092036
0.00470303
0.091374
0.0045078
0.0907336
0.00432074
0.0901145
0.00414136
0.0895161
0.00396921
0.0889381
0.00380387
0.0883799
0.00364491
0.0878413
0.00349196
0.0873216
0.00334464
0.0868205
0.00320261
0.0863376
0.00306552
0.0858725
0.00293306
0.0854247
0.00280492
0.0849939
0.00268081
0.0845798
0.00256045
0.084182
0.00244356
0.0838002
0.00232989
0.083434
0.00221918
0.0830832
0.00211117
0.0827474
0.00200562
0.0824266
0.0019023
0.0821204
0.00180096
0.0818286
0.00170136
0.0815511
0.00160326
0.0812876
0.00150643
0.0810381
0.00141061
0.0808024
0.00131555
0.0805804
0.00122098
0.0803721
0.00112662
0.0801774
0.00103219
0.0799964
0.000937371
0.0798289
0.000841825
0.0796752
0.000745186
0.0795351
0.000647054
0.0794089
0.000546984
0.0792966
0.00044448
0.0791985
0.000338984
0.0791145
0.000229862
0.079045
0.000116391
0.0789901
-2.26073e-06
0.07895
-0.000127052
0.0789248
-0.000259096
0.0789144
-0.000399685
0.078919
-0.00055032
0.078938
-0.000712741
0.078971
-0.000888945
0.0790167
-0.0010812
0.0790735
-0.00129202
0.0791385
-0.00152409
0.079208
-0.00178011
0.0792764
-0.00206252
0.0793367
-0.00237301
0.0793804
-0.00271183
0.079398
-0.00307696
0.0793807
-0.00346314
-0.00386133
0.0793226
0.100202
0.00109779
0.100821
0.00333301
0.101827
0.00552831
0.103151
0.00759767
0.104707
0.00948074
0.106401
0.0111396
0.108143
0.0125532
0.109849
0.0137147
0.111453
0.0146294
0.112901
0.0153111
0.11416
0.0157801
0.115208
0.0160597
0.116038
0.0161754
0.116651
0.0161523
0.117058
0.0160144
0.117273
0.0157838
0.117313
0.0154802
0.117198
0.0151207
0.116947
0.0147199
0.116578
0.0142899
0.116108
0.0138407
0.115554
0.0133806
0.11493
0.012916
0.114249
0.0124521
0.113522
0.0119928
0.11276
0.0115413
0.11197
0.0110996
0.111162
0.0106696
0.11034
0.0102523
0.109511
0.00984853
0.108679
0.00945865
0.107848
0.00908284
0.107022
0.00872112
0.106203
0.00837332
0.105394
0.00803918
0.104596
0.00771835
0.103811
0.00741042
0.10304
0.00711496
0.102285
0.00683149
0.101546
0.00655952
0.100824
0.00629857
0.100118
0.00604814
0.0994306
0.00580774
0.0987607
0.00557689
0.0981086
0.00535513
0.0974744
0.00514199
0.0968581
0.00493705
0.0962596
0.00473986
0.0956787
0.00455002
0.0951155
0.00436714
0.0945696
0.00419083
0.0940408
0.00402072
0.093529
0.00385647
0.0930339
0.00369772
0.0925552
0.00354417
0.0920928
0.00339548
0.0916463
0.00325136
0.0912156
0.00311152
0.0908004
0.00297565
0.0904005
0.0028435
0.0900156
0.00271479
0.0896455
0.00258925
0.0892901
0.00246662
0.088949
0.00234666
0.0886222
0.00222909
0.0883095
0.00211368
0.0880107
0.00200017
0.0877257
0.0018883
0.0874543
0.00177782
0.0871964
0.00166846
0.086952
0.00155994
0.086721
0.00145199
0.0865033
0.00134431
0.0862989
0.00123659
0.0861078
0.0011285
0.0859299
0.00101967
0.0857654
0.000909734
0.0856142
0.000798265
0.0854764
0.000684804
0.085352
0.000568841
0.0852412
0.000449811
0.085144
0.000327079
0.0850604
0.000199928
0.0849906
6.75498e-05
0.0849345
-7.09735e-05
0.0848921
-0.000216685
0.0848632
-0.000370769
0.0848474
-0.000534564
0.0848443
-0.000709576
0.0848528
-0.000897474
0.0848717
-0.00110008
0.084899
-0.0013193
0.084932
-0.00155708
0.084967
-0.00181518
0.0849995
-0.00209499
0.0850236
-0.00239713
0.0850328
-0.00272104
0.0850202
-0.00306438
0.0849797
-0.00342262
-0.00378885
0.0849072
0.100156
0.000941628
0.100635
0.00285428
0.101421
0.00474182
0.102476
0.00654323
0.103743
0.00821316
0.105162
0.00972077
0.106669
0.0110466
0.108202
0.0121813
0.109708
0.0131238
0.111139
0.0138796
0.11246
0.014459
0.113644
0.014876
0.114673
0.0151464
0.115538
0.0152871
0.116237
0.0153155
0.116773
0.015248
0.117153
0.0151003
0.117387
0.0148867
0.117487
0.0146201
0.117465
0.0143118
0.117334
0.0139715
0.117107
0.0136075
0.116796
0.013227
0.116412
0.0128358
0.115967
0.0124388
0.115468
0.0120398
0.114925
0.0116421
0.114347
0.0112483
0.113739
0.0108602
0.113108
0.0104795
0.112459
0.0101072
0.111798
0.00974436
0.111128
0.00939141
0.110452
0.00904877
0.109775
0.00871666
0.109098
0.00839517
0.108424
0.00808425
0.107755
0.0077838
0.107093
0.00749365
0.106439
0.00721355
0.105794
0.00694325
0.10516
0.00668244
0.104537
0.00643081
0.103926
0.00618803
0.103327
0.00595376
0.102742
0.00572766
0.102169
0.00550937
0.10161
0.00529856
0.101066
0.00509489
0.100535
0.00489802
0.100018
0.00470762
0.0995153
0.00452336
0.0990268
0.00434495
0.0985525
0.00417205
0.0980923
0.00400438
0.0976461
0.00384164
0.097214
0.00368353
0.0967957
0.00352979
0.0963912
0.00338013
0.0960004
0.00323427
0.0956233
0.00309197
0.0952596
0.00295294
0.0949092
0.00281694
0.0945722
0.0026837
0.0942483
0.00255296
0.0939375
0.00242448
0.0936397
0.00229798
0.0933548
0.00217321
0.0930827
0.00204989
0.0928234
0.00192776
0.0925768
0.00180653
0.0923429
0.00168591
0.0921216
0.00156559
0.091913
0.00144525
0.091717
0.00132454
0.0915335
0.0012031
0.0913627
0.00108053
0.0912046
0.000956418
0.0910591
0.000830288
0.0909263
0.000701633
0.0908062
0.000569892
0.0906989
0.000434444
0.0906042
0.000294597
0.0905222
0.000149583
0.0904526
-1.45505e-06
0.0903954
-0.000159472
0.0903502
-0.000325527
0.0903164
-0.000500785
0.0902933
-0.000686518
0.09028
-0.000884086
0.0902748
-0.00109491
0.0902759
-0.00132041
0.0902807
-0.00156191
0.0902861
-0.00182051
0.0902879
-0.00209686
0.0902818
-0.00239095
0.0902625
-0.00270175
0.090225
-0.00302696
0.0901651
-0.00336273
-0.00370367
0.09008
0.100124
0.000817944
0.100503
0.00247547
0.101129
0.00411565
0.101978
0.00569412
0.103015
0.00717642
0.104197
0.00853785
0.105482
0.00976167
0.106825
0.0108383
0.108185
0.0117643
0.109523
0.0125411
0.110809
0.0131737
0.112015
0.0136702
0.11312
0.0140404
0.114112
0.0142953
0.114981
0.0144468
0.115722
0.0145067
0.116336
0.0144868
0.116824
0.0143983
0.117193
0.0142517
0.117448
0.0140566
0.117598
0.0138216
0.117651
0.0135545
0.117616
0.013262
0.117502
0.01295
0.117317
0.0126236
0.117069
0.0122871
0.116767
0.0119443
0.116418
0.0115981
0.116027
0.011251
0.115601
0.0109053
0.115146
0.0105626
0.114666
0.0102242
0.114166
0.0098913
0.11365
0.0095647
0.113121
0.00924505
0.112584
0.00893282
0.11204
0.00862835
0.111492
0.00833185
0.110942
0.00804343
0.110392
0.00776314
0.109845
0.00749094
0.1093
0.00722675
0.108761
0.00697044
0.108227
0.00672186
0.1077
0.00648081
0.10718
0.00624707
0.106669
0.00602044
0.106167
0.00580066
0.105675
0.00558749
0.105192
0.00538068
0.10472
0.00517996
0.104258
0.00498508
0.103807
0.00479578
0.103367
0.00461178
0.102939
0.00443284
0.102522
0.00425869
0.102116
0.00408908
0.101722
0.00392375
0.10134
0.00376244
0.100969
0.00360491
0.10061
0.00345089
0.100263
0.00330014
0.0999277
0.00315241
0.099604
0.00300745
0.0992919
0.00286501
0.0989916
0.00272482
0.0987029
0.00258663
0.098426
0.00245018
0.0981606
0.0023152
0.097907
0.00218142
0.097665
0.00204854
0.0974346
0.00191627
0.0972159
0.0017843
0.0970089
0.0016523
0.0968135
0.00151994
0.0966297
0.00138683
0.0964577
0.00125258
0.0962973
0.00111678
0.0961486
0.000978963
0.0960117
0.000838626
0.0958863
0.000695228
0.0957726
0.000548173
0.0956704
0.000396809
0.0955795
0.000240419
0.0954999
7.82199e-05
0.095431
-9.06434e-05
0.0953726
-0.000267098
0.095324
-0.000452139
0.0952843
-0.000646817
0.0952524
-0.000852215
0.0952269
-0.00106941
0.0952059
-0.00129943
0.0951871
-0.00154313
0.0951677
-0.00180112
0.0951444
-0.00207357
0.0951136
-0.00236009
0.0950713
-0.00265945
0.0950138
-0.0029695
0.0949381
-0.003287
-0.0036077
0.0948421
0.1001
0.000717871
0.100406
0.00216961
0.100913
0.00360848
0.101606
0.0050013
0.102461
0.00632151
0.103449
0.00754924
0.104541
0.00867035
0.105703
0.009676
0.106905
0.010562
0.108119
0.0113278
0.109317
0.0119758
0.110476
0.0125106
0.111578
0.0129383
0.112607
0.0132661
0.113552
0.0135021
0.114404
0.0136547
0.115158
0.0137324
0.115813
0.0137437
0.116368
0.0136966
0.116826
0.0135988
0.11719
0.0134577
0.117465
0.0132797
0.117656
0.013071
0.117769
0.012837
0.11781
0.0125825
0.117785
0.0123117
0.117701
0.0120284
0.117563
0.0117358
0.117378
0.0114368
0.117149
0.0111336
0.116883
0.0108285
0.116585
0.010523
0.116257
0.0102186
0.115906
0.00991654
0.115533
0.00961776
0.115143
0.00932307
0.114738
0.0090331
0.114321
0.00874836
0.113896
0.00846921
0.113463
0.00819596
0.113025
0.00792878
0.112584
0.00766781
0.112141
0.00741311
0.111698
0.00716468
0.111257
0.00692251
0.110817
0.00668651
0.110381
0.00645659
0.109949
0.00623263
0.109522
0.00601448
0.109101
0.00580198
0.108686
0.00559496
0.108278
0.00539323
0.107877
0.00519659
0.107484
0.00500485
0.107099
0.0048178
0.106722
0.00463522
0.106354
0.0044569
0.105996
0.00428262
0.105646
0.00411215
0.105306
0.00394527
0.104975
0.00378176
0.104653
0.00362138
0.104342
0.0034639
0.10404
0.00330909
0.103749
0.0031567
0.103467
0.00300649
0.103195
0.00285821
0.102934
0.00271161
0.102683
0.00256643
0.102442
0.00242238
0.102211
0.0022792
0.101991
0.00213658
0.101781
0.00199423
0.101581
0.00185181
0.101392
0.00170899
0.101214
0.00156541
0.101046
0.00142067
0.100888
0.00127437
0.100741
0.00112605
0.100604
0.000975251
0.100478
0.00082144
0.100362
0.000664063
0.100256
0.000502512
0.100161
0.000336136
0.100075
0.000164229
0.099998
-1.39599e-05
0.0999302
-0.000199228
0.0998704
-0.000392408
0.099818
-0.000594351
0.0997717