/*--------------------------------*- C++ -*----------------------------------*\
| =========                 |                                                 |
| \\      /  F ield         | OpenFOAM: The Open Source CFD Toolbox           |
|  \\    /   O peration     | Version:  2406                                  |
|   \\  /    A nd           | Website:  www.openfoam.com                      |
|    \\/     M anipulation  |                                                 |
\*---------------------------------------------------------------------------*/
FoamFile
{
    version     2.0;
    format      ascii;
    arch        "LSB;label=32;scalar=64";
    class       volVectorField;
    location    "700";
    object      U;
}
// * * * * * * * * * * * * * * * * * * * * * * * * * * * * * * * * * * * * * //

dimensions      [0 1 -1 0 0 0 0];

internalField   nonuniform List<vector> 
150000
(
(7.94097 0.953545 0)
(6.6975 1.02916 0)
(5.17749 0.578431 0)
(3.90217 0.294373 0)
(3.11146 0.166104 0)
(2.60339 0.0998791 0)
(2.24731 0.0624367 0)
(1.98819 0.041419 0)
(1.7934 0.0293176 0)
(1.64152 0.0219125 0)
(1.51928 0.0170964 0)
(1.41843 0.0137948 0)
(1.33359 0.0114234 0)
(1.26104 0.00965065 0)
(1.19821 0.00828176 0)
(1.14318 0.00719693 0)
(1.09455 0.00631909 0)
(1.05123 0.00559653 0)
(1.01239 0.0049933 0)
(0.977349 0.0044836 0)
(0.945579 0.00404846 0)
(0.916637 0.00367359 0)
(0.890165 0.00334805 0)
(0.865861 0.00306332 0)
(0.843473 0.00281268 0)
(0.822788 0.00259075 0)
(0.803625 0.00239319 0)
(0.785826 0.00221648 0)
(0.769257 0.00205769 0)
(0.753801 0.00191442 0)
(0.739355 0.00178464 0)
(0.725831 0.00166668 0)
(0.713148 0.00155908 0)
(0.701237 0.00146064 0)
(0.690035 0.0013703 0)
(0.679488 0.00128717 0)
(0.669546 0.00121046 0)
(0.660164 0.00113951 0)
(0.651302 0.00107372 0)
(0.642925 0.00101258 0)
(0.634999 0.000955629 0)
(0.627496 0.000902469 0)
(0.620388 0.000852745 0)
(0.61365 0.00080614 0)
(0.607262 0.000762373 0)
(0.601201 0.000721189 0)
(0.59545 0.000682364 0)
(0.589991 0.000645691 0)
(0.584809 0.000610985 0)
(0.579889 0.000578079 0)
(0.575219 0.00054682 0)
(0.570786 0.000517067 0)
(0.566579 0.000488692 0)
(0.562588 0.000461578 0)
(0.558803 0.000435615 0)
(0.555217 0.000410701 0)
(0.55182 0.000386742 0)
(0.548606 0.00036365 0)
(0.545568 0.000341341 0)
(0.542701 0.000319735 0)
(0.539998 0.000298758 0)
(0.537455 0.000278336 0)
(0.535068 0.000258399 0)
(0.532832 0.000238879 0)
(0.530745 0.000219707 0)
(0.528803 0.000200816 0)
(0.527005 0.000182139 0)
(0.525347 0.000163605 0)
(0.523829 0.000145144 0)
(0.52245 0.000126681 0)
(0.521209 0.000108138 0)
(0.520107 8.94304e-05 0)
(0.519144 7.0468e-05 0)
(0.518321 5.11504e-05 0)
(0.517641 3.13669e-05 0)
(0.517107 1.09926e-05 0)
(0.516721 -1.01144e-05 0)
(0.51649 -3.21173e-05 0)
(0.516418 -5.52061e-05 0)
(0.516513 -7.96063e-05 0)
(0.516783 -0.000105586 0)
(0.51724 -0.000133466 0)
(0.517896 -0.000163638 0)
(0.518767 -0.000196585 0)
(0.519873 -0.000232917 0)
(0.521237 -0.000273425 0)
(0.52289 -0.000319187 0)
(0.524871 -0.000371765 0)
(0.527232 -0.000433641 0)
(0.530043 -0.000509156 0)
(0.533408 -0.000606647 0)
(0.537483 -0.000743231 0)
(0.542531 -0.000955698 0)
(0.549016 -0.00132711 0)
(0.557807 -0.00205573 0)
(0.57054 -0.00361187 0)
(0.590403 -0.00706835 0)
(0.625152 -0.0156639 0)
(0.696691 -0.0459851 0)
(0.808713 -0.169961 0)
(10.2186 1.88712 0)
(10.3826 2.72494 0)
(9.62168 2.24108 0)
(8.49557 1.62034 0)
(7.4767 1.14057 0)
(6.64215 0.808033 0)
(5.96301 0.58649 0)
(5.41219 0.43964 0)
(4.96412 0.340507 0)
(4.59527 0.271605 0)
(4.28719 0.222143 0)
(4.02632 0.185501 0)
(3.80263 0.15757 0)
(3.60867 0.135741 0)
(3.43881 0.118313 0)
(3.28877 0.104143 0)
(3.15522 0.0924416 0)
(3.03556 0.0826499 0)
(2.92771 0.0743613 0)
(2.82999 0.0672741 0)
(2.74103 0.06116 0)
(2.65972 0.0558438 0)
(2.58511 0.0511883 0)
(2.51642 0.0470855 0)
(2.45299 0.0434486 0)
(2.39424 0.0402077 0)
(2.33969 0.0373056 0)
(2.28893 0.0346954 0)
(2.24159 0.0323379 0)
(2.19734 0.0302006 0)
(2.15592 0.0282559 0)
(2.11708 0.0264808 0)
(2.08061 0.0248553 0)
(2.0463 0.0233625 0)
(2.01399 0.0219878 0)
(1.98353 0.0207185 0)
(1.95478 0.0195438 0)
(1.92762 0.0184539 0)
(1.90194 0.0174406 0)
(1.87762 0.0164964 0)
(1.8546 0.0156148 0)
(1.83277 0.01479 0)
(1.81207 0.0140169 0)
(1.79243 0.0132909 0)
(1.77379 0.0126079 0)
(1.75608 0.0119641 0)
(1.73925 0.0113563 0)
(1.72327 0.0107815 0)
(1.70807 0.0102369 0)
(1.69363 0.00972008 0)
(1.67991 0.00922874 0)
(1.66686 0.00876083 0)
(1.65446 0.00831445 0)
(1.64268 0.00788784 0)
(1.6315 0.0074794 0)
(1.62088 0.0070876 0)
(1.61081 0.00671106 0)
(1.60126 0.00634846 0)
(1.59221 0.00599856 0)
(1.58366 0.0056602 0)
(1.57558 0.00533227 0)
(1.56795 0.00501369 0)
(1.56078 0.00470344 0)
(1.55403 0.00440053 0)
(1.54771 0.00410397 0)
(1.54181 0.0038128 0)
(1.53631 0.00352605 0)
(1.53121 0.00324275 0)
(1.52652 0.0029619 0)
(1.52221 0.00268247 0)
(1.5183 0.00240337 0)
(1.51478 0.00212348 0)
(1.51165 0.00184157 0)
(1.50892 0.00155629 0)
(1.50658 0.00126618 0)
(1.50466 0.000969589 0)
(1.50315 0.000664653 0)
(1.50207 0.000349234 0)
(1.50143 2.08401e-05 0)
(1.50125 -0.000323464 0)
(1.50156 -0.00068719 0)
(1.50238 -0.0010746 0)
(1.50374 -0.00149095 0)
(1.50569 -0.00194283 0)
(1.50828 -0.00243873 0)
(1.51157 -0.00298982 0)
(1.51565 -0.00361139 0)
(1.52061 -0.00432518 0)
(1.52659 -0.00516377 0)
(1.53379 -0.00617865 0)
(1.54245 -0.00745598 0)
(1.55296 -0.00914752 0)
(1.56589 -0.0115326 0)
(1.58214 -0.0151437 0)
(1.60312 -0.0210238 0)
(1.63114 -0.0312399 0)
(1.66993 -0.0498444 0)
(1.72601 -0.0848066 0)
(1.80854 -0.152849 0)
(1.90214 -0.287061 0)
(10.1768 1.34552 0)
(10.7882 2.53796 0)
(10.9413 2.66465 0)
(10.5996 2.36742 0)
(10.0101 1.9612 0)
(9.34894 1.57592 0)
(8.70052 1.25813 0)
(8.10397 1.01159 0)
(7.57279 0.824112 0)
(7.10611 0.681526 0)
(6.69741 0.572042 0)
(6.33891 0.486787 0)
(6.02317 0.41935 0)
(5.74365 0.365169 0)
(5.49482 0.320995 0)
(5.27209 0.284494 0)
(5.07169 0.253965 0)
(4.8905 0.228154 0)
(4.72594 0.206117 0)
(4.57586 0.18714 0)
(4.43846 0.170668 0)
(4.31225 0.156269 0)
(4.19593 0.143601 0)
(4.08842 0.132391 0)
(3.98878 0.122418 0)
(3.89622 0.113502 0)
(3.81003 0.105494 0)
(3.7296 0.0982712 0)
(3.65441 0.0917322 0)
(3.58399 0.0857904 0)
(3.51793 0.0803731 0)
(3.45586 0.0754185 0)
(3.39747 0.0708735 0)
(3.34246 0.0666927 0)
(3.29057 0.0628367 0)
(3.24157 0.0592715 0)
(3.19526 0.0559674 0)
(3.15145 0.0528983 0)
(3.10996 0.0500413 0)
(3.07065 0.0473764 0)
(3.03336 0.0448857 0)
(2.99798 0.0425533 0)
(2.96438 0.0403652 0)
(2.93247 0.0383087 0)
(2.90214 0.0363725 0)
(2.8733 0.0345464 0)
(2.84587 0.0328213 0)
(2.81978 0.0311888 0)
(2.79495 0.0296414 0)
(2.77133 0.0281722 0)
(2.74885 0.0267749 0)
(2.72746 0.0254439 0)
(2.70711 0.0241738 0)
(2.68775 0.0229597 0)
(2.66934 0.0217972 0)
(2.65184 0.0206821 0)
(2.63522 0.0196103 0)
(2.61944 0.0185784 0)
(2.60447 0.0175829 0)
(2.59028 0.0166204 0)
(2.57685 0.015688 0)
(2.56416 0.0147826 0)
(2.55217 0.0139013 0)
(2.54089 0.0130416 0)
(2.53028 0.0122005 0)
(2.52034 0.0113754 0)
(2.51105 0.0105638 0)
(2.5024 0.00976282 0)
(2.49439 0.00896981 0)
(2.487 0.00818194 0)
(2.48023 0.00739627 0)
(2.47409 0.00660971 0)
(2.46857 0.00581892 0)
(2.46367 0.00502031 0)
(2.4594 0.00420991 0)
(2.45578 0.0033833 0)
(2.45281 0.0025355 0)
(2.4505 0.00166079 0)
(2.44889 0.00075253 0)
(2.448 -0.000197086 0)
(2.44785 -0.00119739 0)
(2.44849 -0.00225972 0)
(2.44997 -0.00339803 0)
(2.45234 -0.00462989 0)
(2.45569 -0.00597781 0)
(2.4601 -0.00747146 0)
(2.46568 -0.00915098 0)
(2.47259 -0.0110726 0)
(2.48101 -0.0133182 0)
(2.49119 -0.0160113 0)
(2.50348 -0.0193465 0)
(2.51833 -0.0236414 0)
(2.5364 -0.0294289 0)
(2.55858 -0.0376246 0)
(2.58613 -0.0498198 0)
(2.62068 -0.0687689 0)
(2.66418 -0.0991195 0)
(2.7184 -0.148421 0)
(2.7822 -0.228126 0)
(2.83922 -0.349433 0)
(10.0798 0.823405 0)
(10.5966 1.94652 0)
(11.0631 2.45331 0)
(11.2347 2.53061 0)
(11.1192 2.36879 0)
(10.8127 2.10354 0)
(10.4012 1.81897 0)
(9.94651 1.55633 0)
(9.48813 1.32976 0)
(9.04786 1.14035 0)
(8.63596 0.984042 0)
(8.25604 0.855419 0)
(7.90814 0.749249 0)
(7.59053 0.661071 0)
(7.30077 0.587275 0)
(7.03617 0.525011 0)
(6.79414 0.47205 0)
(6.57228 0.426646 0)
(6.36843 0.387434 0)
(6.18066 0.353334 0)
(6.00729 0.32349 0)
(5.84683 0.297214 0)
(5.69799 0.273952 0)
(5.55961 0.253254 0)
(5.43072 0.23475 0)
(5.31041 0.218135 0)
(5.19792 0.203154 0)
(5.09256 0.189596 0)
(4.99372 0.177283 0)
(4.90086 0.166061 0)
(4.8135 0.155804 0)
(4.7312 0.146399 0)
(4.65357 0.137754 0)
(4.58027 0.129785 0)
(4.51099 0.122421 0)
(4.44544 0.115601 0)
(4.38336 0.10927 0)
(4.32452 0.10338 0)
(4.26871 0.0978901 0)
(4.21574 0.0927625 0)
(4.16542 0.0879642 0)
(4.1176 0.083466 0)
(4.07214 0.0792415 0)
(4.02888 0.0752673 0)
(3.98771 0.0715222 0)
(3.94852 0.0679871 0)
(3.9112 0.0646449 0)
(3.87565 0.06148 0)
(3.84178 0.0584781 0)
(3.80951 0.0556262 0)
(3.77877 0.0529126 0)
(3.74947 0.0503264 0)
(3.72157 0.0478576 0)
(3.69498 0.0454969 0)
(3.66967 0.0432359 0)
(3.64558 0.0410664 0)
(3.62266 0.0389813 0)
(3.60086 0.0369734 0)
(3.58015 0.0350363 0)
(3.56049 0.0331637 0)
(3.54185 0.0313498 0)
(3.52419 0.029589 0)
(3.50748 0.0278757 0)
(3.49171 0.0262049 0)
(3.47685 0.0245713 0)
(3.46287 0.0229698 0)
(3.44977 0.0213954 0)
(3.43753 0.0198431 0)
(3.42613 0.0183077 0)
(3.41556 0.0167839 0)
(3.40583 0.0152663 0)
(3.39692 0.0137489 0)
(3.38883 0.0122257 0)
(3.38157 0.0106899 0)
(3.37515 0.00913421 0)
(3.36957 0.00755051 0)
(3.36485 0.00592962 0)
(3.361 0.00426108 0)
(3.35805 0.00253278 0)
(3.35604 0.000730522 0)
(3.35499 -0.00116261 0)
(3.35495 -0.00316706 0)
(3.35599 -0.00530796 0)
(3.35817 -0.00761671 0)
(3.36157 -0.0101334 0)
(3.36631 -0.0129102 0)
(3.3725 -0.0160168 0)
(3.38032 -0.0195491 0)
(3.38997 -0.0236423 0)
(3.4017 -0.0284933 0)
(3.41586 -0.034397 0)
(3.43286 -0.0418061 0)
(3.45325 -0.0514277 0)
(3.47767 -0.0643781 0)
(3.50687 -0.0824138 0)
(3.54149 -0.10824 0)
(3.5817 -0.145819 0)
(3.62635 -0.200419 0)
(3.67099 -0.277611 0)
(3.70389 -0.37822 0)
(10.0426 0.546329 0)
(10.395 1.45871 0)
(10.8535 2.05168 0)
(11.2146 2.33762 0)
(11.3915 2.39323 0)
(11.3902 2.30061 0)
(11.2486 2.1291 0)
(11.01 1.92743 0)
(10.7128 1.72448 0)
(10.3863 1.53492 0)
(10.0504 1.3648 0)
(9.71804 1.21535 0)
(9.39666 1.08546 0)
(9.09043 0.973054 0)
(8.80125 0.875808 0)
(8.52968 0.791512 0)
(8.27545 0.718197 0)
(8.03784 0.654172 0)
(7.8159 0.598012 0)
(7.60859 0.548524 0)
(7.41485 0.50472 0)
(7.23365 0.465774 0)
(7.06401 0.431002 0)
(6.90502 0.39983 0)
(6.75584 0.371777 0)
(6.61571 0.346439 0)
(6.48393 0.323474 0)
(6.35985 0.302591 0)
(6.2429 0.283544 0)
(6.13255 0.26612 0)
(6.02832 0.250136 0)
(5.92978 0.235435 0)
(5.83652 0.221879 0)
(5.74819 0.209351 0)
(5.66446 0.197746 0)
(5.58502 0.186972 0)
(5.50961 0.17695 0)
(5.43796 0.167608 0)
(5.36984 0.158884 0)
(5.30506 0.150722 0)
(5.2434 0.143072 0)
(5.18469 0.13589 0)
(5.12876 0.129136 0)
(5.07546 0.122774 0)
(5.02465 0.116771 0)
(4.9762 0.111099 0)
(4.92999 0.10573 0)
(4.88591 0.100642 0)
(4.84385 0.0958112 0)
(4.80371 0.0912184 0)
(4.76541 0.086845 0)
(4.72887 0.0826741 0)
(4.69401 0.0786902 0)
(4.66075 0.0748787 0)
(4.62904 0.0712264 0)
(4.5988 0.0677207 0)
(4.56999 0.0643501 0)
(4.54255 0.0611037 0)
(4.51644 0.0579711 0)
(4.4916 0.0549426 0)
(4.46801 0.052009 0)
(4.44561 0.0491614 0)
(4.42439 0.0463912 0)
(4.4043 0.0436903 0)
(4.38532 0.0410504 0)
(4.36742 0.0384638 0)
(4.35059 0.0359223 0)
(4.3348 0.0334182 0)
(4.32004 0.0309434 0)
(4.3063 0.0284895 0)
(4.29356 0.0260482 0)
(4.28183 0.0236102 0)
(4.2711 0.0211662 0)
(4.26137 0.0187058 0)
(4.25264 0.0162178 0)
(4.24492 0.0136897 0)
(4.23824 0.0111075 0)
(4.2326 0.00845553 0)
(4.22803 0.00571542 0)
(4.22457 0.00286588 0)
(4.22225 -0.000118315 0)
(4.22112 -0.00326748 0)
(4.22124 -0.00661862 0)
(4.22268 -0.0102176 0)
(4.22552 -0.0141223 0)
(4.22988 -0.0184071 0)
(4.23588 -0.0231697 0)
(4.24366 -0.0285411 0)
(4.25343 -0.0347009 0)
(4.26541 -0.0419007 0)
(4.27987 -0.0505005 0)
(4.29712 -0.0610223 0)
(4.31752 -0.074231 0)
(4.34139 -0.0912451 0)
(4.36896 -0.113676 0)
(4.4001 -0.143758 0)
(4.43395 -0.184352 0)
(4.46828 -0.238567 0)
(4.49856 -0.308458 0)
(4.51728 -0.391766 0)
(10.0236 0.38547 0)
(10.2537 1.09648 0)
(10.6178 1.64947 0)
(10.9919 2.01128 0)
(11.2853 2.19919 0)
(11.4636 2.24894 0)
(11.5246 2.20127 0)
(11.483 2.09344 0)
(11.3611 1.95419 0)
(11.1815 1.80317 0)
(10.9639 1.65263 0)
(10.7237 1.50948 0)
(10.4723 1.3771 0)
(10.2178 1.25668 0)
(9.96583 1.1482 0)
(9.71987 1.05098 0)
(9.48222 0.964036 0)
(9.25419 0.886323 0)
(9.0364 0.816796 0)
(8.82909 0.754488 0)
(8.63215 0.698528 0)
(8.44533 0.648144 0)
(8.26826 0.602661 0)
(8.10048 0.561489 0)
(7.94154 0.524118 0)
(7.79094 0.490106 0)
(7.64821 0.459068 0)
(7.5129 0.430671 0)
(7.38455 0.404626 0)
(7.26275 0.380681 0)
(7.14711 0.358615 0)
(7.03725 0.338235 0)
(6.93283 0.319372 0)
(6.83353 0.301877 0)
(6.73904 0.285619 0)
(6.64908 0.270481 0)
(6.5634 0.25636 0)
(6.48175 0.243165 0)
(6.40391 0.230813 0)
(6.32968 0.219231 0)
(6.25884 0.208354 0)
(6.19124 0.198122 0)
(6.12669 0.188483 0)
(6.06504 0.179388 0)
(6.00616 0.170794 0)
(5.94989 0.162662 0)
(5.89612 0.154954 0)
(5.84473 0.14764 0)
(5.79561 0.140688 0)
(5.74866 0.134071 0)
(5.70378 0.127764 0)
(5.66088 0.121743 0)
(5.61989 0.115988 0)
(5.58072 0.110477 0)
(5.54331 0.105193 0)
(5.50759 0.100118 0)
(5.47348 0.0952366 0)
(5.44095 0.0905324 0)
(5.40993 0.0859915 0)
(5.38038 0.0816003 0)
(5.35225 0.0773459 0)
(5.3255 0.0732157 0)
(5.30009 0.0691978 0)
(5.27598 0.0652806 0)
(5.25315 0.0614528 0)
(5.23157 0.0577031 0)
(5.21121 0.0540205 0)
(5.19204 0.0503939 0)
(5.17406 0.046812 0)
(5.15725 0.0432633 0)
(5.1416 0.0397359 0)
(5.12709 0.0362173 0)
(5.11372 0.0326943 0)
(5.10149 0.0291527 0)
(5.09041 0.0255771 0)
(5.08049 0.0219505 0)
(5.07172 0.018254 0)
(5.06414 0.0144661 0)
(5.05777 0.0105623 0)
(5.05263 0.00651407 0)
(5.04876 0.00228806 0)
(5.04622 -0.00215565 0)
(5.04504 -0.00686526 0)
(5.0453 -0.0118999 0)
(5.04709 -0.0173332 0)
(5.05048 -0.0232582 0)
(5.0556 -0.0297947 0)
(5.06257 -0.0370994 0)
(5.07155 -0.0453805 0)
(5.08271 -0.0549191 0)
(5.09623 -0.0660992 0)
(5.11229 -0.0794497 0)
(5.13106 -0.0956995 0)
(5.15257 -0.115842 0)
(5.17669 -0.141194 0)
(5.20283 -0.17341 0)
(5.22974 -0.214347 0)
(5.2551 -0.26562 0)
(5.27528 -0.327599 0)
(5.28559 -0.397624 0)
(10.0134 0.283934 0)
(10.1646 0.837138 0)
(10.4345 1.31437 0)
(10.7555 1.67874 0)
(11.0609 1.92456 0)
(11.3107 2.06218 0)
(11.4851 2.11038 0)
(11.5793 2.09132 0)
(11.5987 2.02606 0)
(11.5545 1.93207 0)
(11.4595 1.82257 0)
(11.3264 1.70692 0)
(11.1659 1.5913 0)
(10.987 1.47953 0)
(10.7969 1.37379 0)
(10.6008 1.27513 0)
(10.4029 1.1839 0)
(10.206 1.10001 0)
(10.0122 1.02313 0)
(9.82304 0.952801 0)
(9.63941 0.888494 0)
(9.46194 0.829687 0)
(9.29096 0.77587 0)
(9.12663 0.726566 0)
(8.96897 0.681335 0)
(8.81791 0.639775 0)
(8.6733 0.601526 0)
(8.53496 0.566263 0)
(8.40267 0.533696 0)
(8.2762 0.503567 0)
(8.15532 0.475643 0)
(8.03978 0.449719 0)
(7.92933 0.425609 0)
(7.82376 0.403151 0)
(7.72281 0.382196 0)
(7.62629 0.362612 0)
(7.53398 0.344282 0)
(7.44567 0.327097 0)
(7.36118 0.310964 0)
(7.28032 0.295795 0)
(7.20294 0.281513 0)
(7.12885 0.268046 0)
(7.05792 0.25533 0)
(6.99 0.243308 0)
(6.92495 0.231925 0)
(6.86265 0.221134 0)
(6.80297 0.21089 0)
(6.74581 0.201153 0)
(6.69106 0.191884 0)
(6.63861 0.18305 0)
(6.58838 0.174619 0)
(6.54028 0.166561 0)
(6.49422 0.15885 0)
(6.45013 0.151459 0)
(6.40793 0.144366 0)
(6.36757 0.137547 0)
(6.32897 0.130983 0)
(6.29207 0.124654 0)
(6.25683 0.11854 0)
(6.22319 0.112626 0)
(6.1911 0.106893 0)
(6.16052 0.101326 0)
(6.13142 0.0959087 0)
(6.10374 0.090627 0)
(6.07747 0.0854657 0)
(6.05256 0.0804104 0)
(6.029 0.0754466 0)
(6.00677 0.0705599 0)
(5.98583 0.0657359 0)
(5.96617 0.0609595 0)
(5.94778 0.0562155 0)
(5.93066 0.0514877 0)
(5.91478 0.0467593 0)
(5.90016 0.0420121 0)
(5.88678 0.0372264 0)
(5.87467 0.0323808 0)
(5.86382 0.0274515 0)
(5.85426 0.0224116 0)
(5.84599 0.0172306 0)
(5.83905 0.0118735 0)
(5.83348 0.00629935 0)
(5.8293 0.000459762 0)
(5.82658 -0.00570298 0)
(5.82536 -0.0122588 0)
(5.82571 -0.0192935 0)
(5.8277 -0.0269136 0)
(5.83144 -0.0352533 0)
(5.83701 -0.0444834 0)
(5.84451 -0.054824 0)
(5.85406 -0.0665617 0)
(5.86575 -0.0800711 0)
(5.87965 -0.095843 0)
(5.89574 -0.114515 0)
(5.9139 -0.136901 0)
(5.93374 -0.163997 0)
(5.95451 -0.196934 0)
(5.97491 -0.236819 0)
(5.99295 -0.284363 0)
(6.00594 -0.33923 0)
(6.01095 -0.399131 0)
(10.0083 0.218053 0)
(10.1103 0.654767 0)
(10.3067 1.05502 0)
(10.5624 1.38946 0)
(10.8344 1.64656 0)
(11.0903 1.82576 0)
(11.3082 1.93341 0)
(11.475 1.98032 0)
(11.5857 1.97917 0)
(11.6419 1.94233 0)
(11.6488 1.88067 0)
(11.6133 1.80308 0)
(11.5433 1.71642 0)
(11.4459 1.62569 0)
(11.3276 1.53442 0)
(11.1941 1.44499 0)
(11.0499 1.35888 0)
(10.8987 1.27698 0)
(10.7436 1.19974 0)
(10.5867 1.1273 0)
(10.43 1.05965 0)
(10.2747 0.996624 0)
(10.1218 0.937994 0)
(9.97211 0.883499 0)
(9.82614 0.83286 0)
(9.68423 0.785796 0)
(9.54663 0.742035 0)
(9.41346 0.701316 0)
(9.2848 0.663395 0)
(9.16064 0.628044 0)
(9.04094 0.595055 0)
(8.92565 0.564234 0)
(8.81466 0.535405 0)
(8.70786 0.508407 0)
(8.60515 0.483092 0)
(8.50638 0.459328 0)
(8.41143 0.436991 0)
(8.32017 0.41597 0)
(8.23247 0.396163 0)
(8.14819 0.377478 0)
(8.06721 0.35983 0)
(7.98941 0.343141 0)
(7.91466 0.32734 0)
(7.84284 0.312363 0)
(7.77386 0.298149 0)
(7.70759 0.284643 0)
(7.64394 0.271795 0)
(7.58281 0.259559 0)
(7.5241 0.24789 0)
(7.46773 0.23675 0)
(7.41362 0.2261 0)
(7.36168 0.215907 0)
(7.31183 0.206138 0)
(7.26402 0.196764 0)
(7.21816 0.187756 0)
(7.1742 0.179087 0)
(7.13208 0.170733 0)
(7.09173 0.162671 0)
(7.05312 0.154877 0)
(7.01618 0.147332 0)
(6.98087 0.140013 0)
(6.94716 0.132903 0)
(6.91499 0.125981 0)
(6.88434 0.11923 0)
(6.85517 0.112632 0)
(6.82745 0.106168 0)
(6.80116 0.0998217 0)
(6.77626 0.0935748 0)
(6.75275 0.0874098 0)
(6.7306 0.0813083 0)
(6.70979 0.0752518 0)
(6.69032 0.0692206 0)
(6.67218 0.0631943 0)
(6.65537 0.0571509 0)
(6.63987 0.0510668 0)
(6.62571 0.0449163 0)
(6.61288 0.0386712 0)
(6.60139 0.0322996 0)
(6.59127 0.0257658 0)
(6.58253 0.0190291 0)
(6.5752 0.0120421 0)
(6.56931 0.00474994 0)
(6.5649 -0.00291259 0)
(6.56201 -0.0110231 0)
(6.5607 -0.0196753 0)
(6.56103 -0.0289834 0)
(6.56304 -0.039088 0)
(6.5668 -0.0501633 0)
(6.57238 -0.0624273 0)
(6.57981 -0.076153 0)
(6.58912 -0.0916834 0)
(6.60028 -0.109446 0)
(6.61316 -0.129966 0)
(6.62752 -0.153869 0)
(6.64288 -0.181866 0)
(6.65846 -0.214683 0)
(6.67311 -0.252917 0)
(6.68523 -0.296774 0)
(6.6929 -0.34568 0)
(6.69427 -0.397842 0)
(10.0055 0.173574 0)
(10.0768 0.525178 0)
(10.2204 0.858843 0)
(10.4186 1.15362 0)
(10.6449 1.39845 0)
(10.8767 1.58919 0)
(11.0959 1.72641 0)
(11.2884 1.8143 0)
(11.4456 1.85937 0)
(11.5631 1.86915 0)
(11.6406 1.85117 0)
(11.6803 1.81236 0)
(11.6858 1.75872 0)
(11.6616 1.69516 0)
(11.6123 1.62555 0)
(11.5425 1.55285 0)
(11.4562 1.47925 0)
(11.3571 1.40632 0)
(11.2483 1.33513 0)
(11.1323 1.2664 0)
(11.0114 1.20057 0)
(10.8874 1.13788 0)
(10.7618 1.07844 0)
(10.6356 1.02225 0)
(10.5098 0.969238 0)
(10.3853 0.919306 0)
(10.2625 0.872314 0)
(10.1419 0.828111 0)
(10.0238 0.786538 0)
(9.90845 0.747436 0)
(9.79608 0.710647 0)
(9.68678 0.676019 0)
(9.58063 0.643407 0)
(9.47765 0.612675 0)
(9.37787 0.583692 0)
(9.28126 0.556337 0)
(9.1878 0.530499 0)
(9.09744 0.50607 0)
(9.01012 0.482954 0)
(8.92579 0.461061 0)
(8.84437 0.440305 0)
(8.76579 0.42061 0)
(8.68998 0.401902 0)
(8.61687 0.384115 0)
(8.54637 0.367187 0)
(8.47841 0.351059 0)
(8.41292 0.335679 0)
(8.34982 0.320996 0)
(8.28904 0.306963 0)
(8.23051 0.293538 0)
(8.17417 0.280679 0)
(8.11994 0.268349 0)
(8.06778 0.256512 0)
(8.01761 0.245135 0)
(7.96938 0.234186 0)
(7.92304 0.223635 0)
(7.87853 0.213455 0)
(7.83581 0.203618 0)
(7.79482 0.194098 0)
(7.75553 0.184873 0)
(7.71788 0.175918 0)
(7.68186 0.16721 0)
(7.64741 0.158728 0)
(7.61451 0.150451 0)
(7.58312 0.142357 0)
(7.55321 0.134426 0)
(7.52477 0.126638 0)
(7.49777 0.118971 0)
(7.47218 0.111405 0)
(7.448 0.103919 0)
(7.42521 0.0964914 0)
(7.40378 0.0890988 0)
(7.38373 0.0817177 0)
(7.36504 0.0743228 0)
(7.34771 0.066887 0)
(7.33174 0.0593809 0)
(7.31714 0.051772 0)
(7.30391 0.0440248 0)
(7.29207 0.0360989 0)
(7.28163 0.0279491 0)
(7.27261 0.0195235 0)
(7.26504 0.0107621 0)
(7.25894 0.00159499 0)
(7.25435 -0.00805994 0)
(7.25129 -0.0183001 0)
(7.24981 -0.029242 0)
(7.24993 -0.0410256 0)
(7.25169 -0.0538201 0)
(7.2551 -0.0678303 0)
(7.26015 -0.0833042 0)
(7.26681 -0.10054 0)
(7.27498 -0.119894 0)
(7.28447 -0.141777 0)
(7.29497 -0.166651 0)
(7.306 -0.194993 0)
(7.31684 -0.227239 0)
(7.32651 -0.263664 0)
(7.33379 -0.304212 0)
(7.33734 -0.348275 0)
(7.33595 -0.394492 0)
(10.004 0.14212 0)
(10.0556 0.430941 0)
(10.1623 0.710497 0)
(10.3151 0.966334 0)
(10.4981 1.18949 0)
(10.6962 1.37532 0)
(10.8963 1.52221 0)
(11.0866 1.63109 0)
(11.2582 1.7048 0)
(11.4048 1.7474 0)
(11.5232 1.76353 0)
(11.6122 1.75792 0)
(11.6722 1.73509 0)
(11.7052 1.6991 0)
(11.7134 1.65344 0)
(11.6999 1.60104 0)
(11.6676 1.54425 0)
(11.6192 1.48493 0)
(11.5576 1.42453 0)
(11.4851 1.36413 0)
(11.404 1.30453 0)
(11.316 1.2463 0)
(11.2228 1.18984 0)
(11.1258 1.13541 0)
(11.0262 1.08316 0)
(10.9249 1.03318 0)
(10.8228 0.985476 0)
(10.7206 0.940038 0)
(10.6187 0.896817 0)
(10.5178 0.855743 0)
(10.418 0.816735 0)
(10.3198 0.779701 0)
(10.2233 0.744547 0)
(10.1287 0.711177 0)
(10.0362 0.679495 0)
(9.94595 0.649408 0)
(9.8579 0.620825 0)
(9.77216 0.593657 0)
(9.68875 0.567822 0)
(9.60769 0.543239 0)
(9.52897 0.519834 0)
(9.45259 0.497534 0)
(9.37853 0.476273 0)
(9.30676 0.455986 0)
(9.23724 0.436614 0)
(9.16995 0.418102 0)
(9.10485 0.400395 0)
(9.04188 0.383444 0)
(8.98102 0.367202 0)
(8.92221 0.351625 0)
(8.86541 0.336671 0)
(8.81058 0.322301 0)
(8.75767 0.308477 0)
(8.70665 0.295165 0)
(8.65746 0.282331 0)
(8.61007 0.269943 0)
(8.56443 0.257971 0)
(8.52051 0.246387 0)
(8.47828 0.235161 0)
(8.43769 0.224269 0)
(8.39871 0.213684 0)
(8.36132 0.203381 0)
(8.32548 0.193336 0)
(8.29116 0.183526 0)
(8.25834 0.173927 0)
(8.22699 0.164516 0)
(8.19709 0.15527 0)
(8.16863 0.146166 0)
(8.14158 0.137181 0)
(8.11594 0.128291 0)
(8.09168 0.119471 0)
(8.0688 0.110697 0)
(8.04728 0.101941 0)
(8.02714 0.0931751 0)
(8.00835 0.0843696 0)
(7.99092 0.0754918 0)
(7.97486 0.0665062 0)
(7.96017 0.0573739 0)
(7.94686 0.0480515 0)
(7.93493 0.0384902 0)
(7.9244 0.0286352 0)
(7.91529 0.0184235 0)
(7.90762 0.00778296 0)
(7.90139 -0.0033701 0)
(7.89664 -0.0151331 0)
(7.89336 -0.0276202 0)
(7.89158 -0.0409653 0)
(7.8913 -0.0553264 0)
(7.89248 -0.0708886 0)
(7.8951 -0.0878686 0)
(7.89907 -0.106516 0)
(7.90424 -0.127116 0)
(7.91041 -0.149979 0)
(7.91724 -0.175428 0)
(7.92428 -0.203771 0)
(7.93091 -0.235241 0)
(7.93633 -0.269921 0)
(7.93964 -0.307631 0)
(7.93986 -0.347811 0)
(7.93621 -0.38943 0)
(10.003 0.11896 0)
(10.0416 0.360628 0)
(10.1226 0.59715 0)
(10.2413 0.818544 0)
(10.3879 1.01798 0)
(10.5528 1.1913 0)
(10.7268 1.33638 0)
(10.9012 1.45277 0)
(11.0683 1.54141 0)
(11.222 1.60426 0)
(11.3581 1.64393 0)
(11.4738 1.6634 0)
(11.5678 1.66573 0)
(11.6397 1.65391 0)
(11.6905 1.63073 0)
(11.7211 1.59868 0)
(11.7334 1.5599 0)
(11.7292 1.51624 0)
(11.7104 1.46921 0)
(11.679 1.42004 0)
(11.6366 1.36973 0)
(11.585 1.31905 0)
(11.5258 1.2686 0)
(11.4602 1.21884 0)
(11.3895 1.17012 0)
(11.3149 1.12266 0)
(11.2371 1.07666 0)
(11.157 1.0322 0)
(11.0754 0.989371 0)
(10.9927 0.948186 0)
(10.9095 0.908653 0)
(10.8263 0.870753 0)
(10.7434 0.834454 0)
(10.6611 0.799712 0)
(10.5796 0.766476 0)
(10.4992 0.73469 0)
(10.42 0.704296 0)
(10.3422 0.675231 0)
(10.2659 0.647435 0)
(10.1911 0.620848 0)
(10.1181 0.595409 0)
(10.0467 0.57106 0)
(9.97701 0.547744 0)
(9.90912 0.525408 0)
(9.84302 0.503997 0)
(9.7787 0.483463 0)
(9.71618 0.463756 0)
(9.65544 0.444831 0)
(9.59648 0.426643 0)
(9.53928 0.40915 0)
(9.48382 0.392313 0)
(9.43009 0.376092 0)
(9.37807 0.360451 0)
(9.32773 0.345356 0)
(9.27905 0.330772 0)
(9.232 0.316667 0)
(9.18656 0.303011 0)
(9.14271 0.289774 0)
(9.10042 0.276927 0)
(9.05967 0.264442 0)
(9.02043 0.252292 0)
(8.98269 0.240451 0)
(8.94642 0.228894 0)
(8.9116 0.217595 0)
(8.87821 0.20653 0)
(8.84624 0.195672 0)
(8.81567 0.184999 0)
(8.78648 0.174484 0)
(8.75866 0.164102 0)
(8.7322 0.153828 0)
(8.70709 0.143635 0)
(8.68332 0.133496 0)
(8.66088 0.123381 0)
(8.63978 0.113261 0)
(8.62 0.103103 0)
(8.60156 0.0928716 0)
(8.58443 0.0825299 0)
(8.56865 0.0720364 0)
(8.55419 0.0613455 0)
(8.54108 0.0504068 0)
(8.52932 0.0391635 0)
(8.51892 0.0275519 0)
(8.50988 0.0154997 0)
(8.50221 0.0029242 0)
(8.49591 -0.0102689 0)
(8.49099 -0.024188 0)
(8.48743 -0.0389574 0)
(8.4852 -0.0547197 0)
(8.48427 -0.0716372 0)
(8.48457 -0.0898931 0)
(8.48597 -0.109691 0)
(8.48833 -0.131249 0)
(8.49142 -0.154796 0)
(8.49492 -0.180548 0)
(8.49842 -0.208688 0)
(8.5014 -0.239319 0)
(8.50324 -0.272414 0)
(8.50324 -0.307744 0)
(8.50073 -0.344819 0)
(8.49517 -0.382856 0)
(10.0023 0.101325 0)
(10.0321 0.306817 0)
(10.095 0.50918 0)
(10.1884 0.701399 0)
(10.3061 0.878338 0)
(10.4421 1.03659 0)
(10.5899 1.17409 0)
(10.7434 1.28994 0)
(10.8967 1.3842 0)
(11.0446 1.4577 0)
(11.1831 1.51183 0)
(11.3089 1.54833 0)
(11.4199 1.56918 0)
(11.5147 1.57641 0)
(11.5929 1.57205 0)
(11.6545 1.55802 0)
(11.7001 1.53611 0)
(11.7305 1.5079 0)
(11.7469 1.47478 0)
(11.7505 1.43796 0)
(11.7425 1.39845 0)
(11.7243 1.35712 0)
(11.6971 1.31465 0)
(11.6621 1.27162 0)
(11.6204 1.2285 0)
(11.5729 1.18563 0)
(11.5207 1.14331 0)
(11.4644 1.10176 0)
(11.4049 1.06114 0)
(11.3429 1.02156 0)
(11.2788 0.983114 0)
(11.2131 0.945851 0)
(11.1465 0.909804 0)
(11.0791 0.874983 0)
(11.0114 0.841388 0)
(10.9436 0.809005 0)
(10.876 0.777813 0)
(10.8088 0.747784 0)
(10.7422 0.718883 0)
(10.6764 0.691076 0)
(10.6114 0.664323 0)
(10.5474 0.638584 0)
(10.4846 0.613818 0)
(10.4228 0.589984 0)
(10.3623 0.56704 0)
(10.3031 0.544946 0)
(10.2452 0.523663 0)
(10.1886 0.50315 0)
(10.1335 0.483369 0)
(10.0797 0.464284 0)
(10.0273 0.445859 0)
(9.97631 0.428057 0)
(9.92675 0.410847 0)
(9.87861 0.394193 0)
(9.83189 0.378066 0)
(9.78657 0.362433 0)
(9.74266 0.347264 0)
(9.70014 0.332532 0)
(9.659 0.318207 0)
(9.61924 0.304261 0)
(9.58085 0.290667 0)
(9.54381 0.2774 0)
(9.50811 0.264431 0)
(9.47374 0.251737 0)
(9.4407 0.23929 0)
(9.40897 0.227065 0)
(9.37854 0.215036 0)
(9.34941 0.203178 0)
(9.32156 0.191463 0)
(9.29499 0.179864 0)
(9.2697 0.168354 0)
(9.24567 0.156904 0)
(9.22291 0.145483 0)
(9.20142 0.134059 0)
(9.18118 0.122598 0)
(9.16221 0.111065 0)
(9.1445 0.0994196 0)
(9.12805 0.0876199 0)
(9.11287 0.0756192 0)
(9.09895 0.0633663 0)
(9.08631 0.0508046 0)
(9.07494 0.0378708 0)
(9.06483 0.0244944 0)
(9.056 0.010596 0)
(9.04843 -0.00391348 0)
(9.0421 -0.0191343 0)
(9.03698 -0.0351788 0)
(9.03304 -0.0521724 0)
(9.03022 -0.0702537 0)
(9.02843 -0.0895737 0)
(9.02754 -0.110293 0)
(9.02739 -0.132576 0)
(9.02775 -0.156582 0)
(9.02835 -0.182449 0)
(9.02881 -0.210273 0)
(9.02872 -0.240077 0)
(9.02757 -0.271771 0)
(9.02486 -0.305121 0)
(9.0201 -0.339708 0)
(9.0129 -0.374927 0)
(10.0018 0.0875175 0)
(10.0254 0.264649 0)
(10.0752 0.439693 0)
(10.1498 0.607594 0)
(10.2452 0.764476 0)
(10.3573 0.907603 0)
(10.4818 1.03517 0)
(10.6143 1.14619 0)
(10.7505 1.24038 0)
(10.8863 1.31801 0)
(11.0182 1.37977 0)
(11.1434 1.42668 0)
(11.2594 1.45993 0)
(11.3646 1.48088 0)
(11.4578 1.49093 0)
(11.5384 1.49148 0)
(11.6061 1.48388 0)
(11.6611 1.46941 0)
(11.7038 1.44923 0)
(11.7348 1.42439 0)
(11.7548 1.39585 0)
(11.7647 1.36441 0)
(11.7654 1.33078 0)
(11.7577 1.29558 0)
(11.7426 1.25929 0)
(11.7208 1.22237 0)
(11.6931 1.18515 0)
(11.6604 1.14793 0)
(11.6232 1.11094 0)
(11.5822 1.07437 0)
(11.538 1.03837 0)
(11.4911 1.00306 0)
(11.442 0.968513 0)
(11.3911 0.934805 0)
(11.3388 0.901976 0)
(11.2855 0.870058 0)
(11.2313 0.839065 0)
(11.1766 0.809004 0)
(11.1217 0.779871 0)
(11.0667 0.751658 0)
(11.0118 0.724349 0)
(10.9571 0.697925 0)
(10.9029 0.672364 0)
(10.8492 0.647641 0)
(10.7962 0.623729 0)
(10.7438 0.600601 0)
(10.6923 0.578226 0)
(10.6416 0.556576 0)
(10.5918 0.535621 0)
(10.5431 0.51533 0)
(10.4953 0.495675 0)
(10.4486 0.476625 0)
(10.403 0.458152 0)
(10.3584 0.440226 0)
(10.315 0.422819 0)
(10.2727 0.405902 0)
(10.2316 0.389449 0)
(10.1916 0.373432 0)
(10.1528 0.357825 0)
(10.1152 0.3426 0)
(10.0787 0.327732 0)
(10.0434 0.313194 0)
(10.0093 0.298961 0)
(9.97629 0.285008 0)
(9.9445 0.271308 0)
(9.91388 0.257835 0)
(9.88443 0.244564 0)
(9.85615 0.231468 0)
(9.82904 0.21852 0)
(9.80309 0.205693 0)
(9.77831 0.192957 0)
(9.75469 0.180283 0)
(9.73224 0.16764 0)
(9.71095 0.154995 0)
(9.69083 0.142314 0)
(9.67187 0.12956 0)
(9.65408 0.116693 0)
(9.63746 0.10367 0)
(9.62201 0.0904459 0)
(9.60772 0.0769687 0)
(9.59461 0.0631832 0)
(9.58265 0.0490285 0)
(9.57186 0.034437 0)
(9.56221 0.0193342 0)
(9.55369 0.00363789 0)
(9.54628 -0.0127426 0)
(9.53992 -0.0299066 0)
(9.53459 -0.0479621 0)
(9.53019 -0.0670247 0)
(9.52664 -0.0872158 0)
(9.52381 -0.108659 0)
(9.52154 -0.131474 0)
(9.51961 -0.155768 0)
(9.51778 -0.181621 0)
(9.51573 -0.20907 0)
(9.51312 -0.238089 0)
(9.50956 -0.268562 0)
(9.50466 -0.300263 0)
(9.49807 -0.332839 0)
(9.48953 -0.365815 0)
(10.0015 0.076452 0)
(10.0206 0.230896 0)
(10.0608 0.383831 0)
(10.1213 0.531517 0)
(10.1995 0.670984 0)
(10.2924 0.80004 0)
(10.3972 0.917152 0)
(10.5107 1.02139 0)
(10.6297 1.11236 0)
(10.7512 1.19006 0)
(10.8724 1.25482 0)
(10.9908 1.30721 0)
(11.1043 1.348 0)
(11.2113 1.37805 0)
(11.3102 1.3983 0)
(11.4002 1.40976 0)
(11.4806 1.41341 0)
(11.5511 1.41021 0)
(11.6115 1.40108 0)
(11.6621 1.3869 0)
(11.7031 1.36846 0)
(11.7349 1.34648 0)
(11.7581 1.32162 0)
(11.7731 1.29444 0)
(11.7806 1.26545 0)
(11.7813 1.23508 0)
(11.7757 1.20373 0)
(11.7645 1.17171 0)
(11.7482 1.1393 0)
(11.7274 1.10672 0)
(11.7025 1.07418 0)
(11.6742 1.04182 0)
(11.6428 1.00978 0)
(11.6087 0.978168 0)
(11.5724 0.947065 0)
(11.5342 0.916537 0)
(11.4943 0.886634 0)
(11.4532 0.857394 0)
(11.411 0.828843 0)
(11.3681 0.800996 0)
(11.3245 0.773864 0)
(11.2805 0.747449 0)
(11.2363 0.721747 0)
(11.192 0.696752 0)
(11.1477 0.672452 0)
(11.1036 0.648833 0)
(11.0598 0.62588 0)
(11.0164 0.603573 0)
(10.9734 0.581894 0)
(10.931 0.560821 0)
(10.8892 0.540332 0)
(10.848 0.520405 0)
(10.8075 0.501016 0)
(10.7678 0.482143 0)
(10.7289 0.463762 0)
(10.6908 0.445848 0)
(10.6536 0.428378 0)
(10.6173 0.411328 0)