/*--------------------------------*- C++ -*----------------------------------*\
| =========                 |                                                 |
| \\      /  F ield         | OpenFOAM: The Open Source CFD Toolbox           |
|  \\    /   O peration     | Version:  2406                                  |
|   \\  /    A nd           | Website:  www.openfoam.com                      |
|    \\/     M anipulation  |                                                 |
\*---------------------------------------------------------------------------*/
FoamFile
{
    version     2.0;
    format      ascii;
    arch        "LSB;label=32;scalar=64";
    class       volScalarField;
    location    "50";
    object      p;
}
// * * * * * * * * * * * * * * * * * * * * * * * * * * * * * * * * * * * * * //

dimensions      [0 2 -2 0 0 0 0];

internalField   nonuniform List<scalar> 
1500
(
28.9398
16.1175
6.27311
0.749037
-3.50628
-7.52657
-11.149
-14.368
-17.3849
-20.4708
14.4347
9.61666
4.51883
0.558738
-3.06999
-6.70585
-10.1301
-13.2231
-16.0279
-18.5638
9.54166
8.05113
4.94525
1.4592
-1.8861
-5.1232
-8.22491
-11.0841
-13.6077
-15.6916
7.68476
6.8295
4.55521
1.59276
-1.38337
-4.25583
-7.03446
-9.63308
-11.9365
-13.847
6.92766
6.17472
4.31467
1.75201
-0.959243
-3.62083
-6.20549
-8.63363
-10.7898
-12.5909
7.16374
6.42157
4.58579
2.06329
-0.591317
-3.18046
-5.67742
-8.00575
-10.0614
-11.7845
8.37773
7.55605
5.3572
2.51911
-0.282949
-2.93114
-5.43452
-7.71649
-9.69428
-11.3418
10.6489
9.20748
6.2321
2.97073
-0.0603186
-2.8896
-5.48153
-7.73867
-9.63099
-11.1879
15.9418
11.2165
6.34759
2.73754
-0.435722
-3.48637
-6.16391
-8.33093
-10.0582
-11.4537
30.8177
18.083
8.486
3.3297
-0.446838
-3.83516
-6.63267
-8.78726
-10.461
-11.7981
-18.672
-18.7001
-18.7243
-18.7328
-18.7263
-18.7056
-18.6702
-18.6187
-18.5495
-18.4606
-18.3502
-18.2167
-18.0585
-17.8739
-17.6615
-17.4199
-17.1477
-16.8436
-16.5065
-16.1353
-15.7292
-15.2873
-14.8093
-14.2952
-13.7453
-13.1602
-12.5412
-11.8903
-11.2098
-10.5029
-9.77344
-9.02607
-8.26597
-7.49886
-6.73093
-5.96859
-5.21846
-4.48702
-3.78059
-3.10498
-2.46543
-1.86647
-1.31177
-0.804118
-0.345359
0.0636587
0.422859
0.732747
0.994613
1.21039
1.38249
1.51371
1.60711
1.6659
1.69339
1.69285
1.66746
1.62024
1.55403
1.4714
1.37469
1.26593
1.14685
1.01891
0.883247
0.740748
0.591864
0.437284
0.276546
0.110821
-18.6401
-18.6691
-18.69
-18.6947
-18.6865
-18.6659
-18.6318
-18.5822
-18.515
-18.4284
-18.3205
-18.1894
-18.0335
-17.8513
-17.6413
-17.4022
-17.1327
-16.8316
-16.4978
-16.1301
-15.7278
-15.2901
-14.8166
-14.3072
-13.7622
-13.1821
-12.5683
-11.9223
-11.2468
-10.5448
-9.8199
-9.07667
-8.32007
-7.55591
-6.79034
-6.02983
-5.28087
-4.55011
-3.84395
-3.16828
-2.52824
-1.92853
-1.37315
-0.86484
-0.405322
0.00450113
0.364497
0.675314
0.938297
1.15538
1.32899
1.4619
1.55717
1.61801
1.64768
1.64944
1.62643
1.58165
1.51789
1.43772
1.34341
1.23697
1.12012
0.994278
0.860597
0.719943
0.572897
0.420753
0.261503
0.105605
-18.6189
-18.6529
-18.6741
-18.6768
-18.6685
-18.6498
-18.6186
-18.5722
-18.5087
-18.4256
-18.3211
-18.1933
-18.0407
-17.8618
-17.6552
-17.4195
-17.1538
-16.8565
-16.5268
-16.1634
-15.7655
-15.3325
-14.8638
-14.3592
-13.8188
-13.2431
-12.6335
-11.9917
-11.32
-10.6213
-9.89908
-9.15773
-8.40238
-7.63881
-6.87327
-6.11216
-5.3619
-4.62942
-3.92186
-3.2453
-2.60474
-2.00459
-1.44858
-0.939421
-0.478917
-0.0680395
0.293059
0.605034
0.869251
1.08768
1.26277
1.39733
1.49444
1.55731
1.58922
1.59341
1.57302
1.53102
1.4702
1.39309
1.30195
1.19875
1.08518
0.962667
0.83233
0.6951
0.551466
0.403182
0.246814
0.104711
-18.642
-18.6804
-18.7031
-18.7058
-18.6991
-18.6831
-18.655
-18.6121
-18.5517
-18.4715
-18.3697
-18.2444
-18.0942
-17.9177
-17.7136
-17.4807
-17.2176
-16.9233
-16.5966
-16.2365
-15.8421
-15.4125
-14.947
-14.4452
-13.9073
-13.3342
-12.7267
-12.0866
-11.4161
-10.7177
-9.99477
-9.25191
-8.49507
-7.73033
-6.96385
-6.20213
-5.45181
-4.7196
-4.01214
-3.3355
-2.69496
-2.09511
-1.53968
-1.03136
-0.571851
-0.162021
0.198097
0.509248
0.772895
0.991089
1.16635
1.30155
1.3998
1.46435
1.49847
1.5054
1.48828
1.45004
1.39345
1.32098
1.23487
1.13704
1.02916
0.912615
0.788527
0.657839
0.520952
0.379862
0.230206
0.100383
-18.7372
-18.773
-18.7922
-18.7919
-18.7841
-18.768
-18.74
-18.697
-18.6363
-18.5559
-18.4538
-18.3284
-18.1782
-18.0018
-17.7981
-17.5656
-17.3032
-17.0096
-16.6838
-16.3247
-15.9312
-15.5022
-15.037
-14.5354
-13.9981
-13.4256
-12.8187
-12.1788
-11.5084
-10.8101
-10.0877
-9.34562
-8.58952
-7.8255
-7.06001
-6.29984
-5.55189
-4.82299
-4.11968
-3.44787
-2.81271
-2.21857
-1.66897
-1.16644
-0.712503
-0.307827
0.0477389
0.355102
0.615854
0.832149
1.00658
1.14207
1.24175
1.30885
1.34663
1.35829
1.34686
1.31525
1.2661
1.20183
1.12458
1.03622
0.938319
0.832232
0.719052
0.599654
0.474555
0.345306
0.208602
0.0877485
-18.9315
-18.9476
-18.947
-18.9322
-18.914
-18.8897
-18.8545
-18.8054
-18.7393
-18.6538
-18.5471
-18.4173
-18.263
-18.0832
-17.8765
-17.6415
-17.3771
-17.0824
-16.7561
-16.3966
-16.0026
-15.5733
-15.108
-14.6064
-14.0686
-13.4952
-12.8874
-12.2468
-11.576
-10.8781
-10.1569
-9.41742
-8.66527
-7.90665
-7.1481
-6.39634
-5.6582
-4.94033
-4.249
-3.58984
-2.96773
-2.3867
-1.84995
-1.35968
-0.917137
-0.522708
-0.175984
0.124155
0.37946
0.592187
0.764994
0.900814
1.00276
1.074
1.11771
1.13695
1.13465
1.11354
1.07614
1.02471
0.961257
0.887509
0.804951
0.714836
0.618189
0.515858
0.408387
0.296698
0.180516
0.0664717
-19.2531
-19.2125
-19.1556
-19.1006
-19.0549
-19.0103
-18.9589
-18.8963
-18.8191
-18.7246
-18.6111
-18.4763
-18.318
-18.1348
-17.9254
-17.6883
-17.4219
-17.1249
-16.7959
-16.4334
-16.0365
-15.6042
-15.136
-14.6316
-14.0915
-13.5166
-12.9081
-12.2682
-11.5994
-10.9053
-10.19
-9.45846
-8.71655
-7.97041
-7.22653
-6.49151
-5.77194
-5.07413
-4.40393
-3.76652
-3.16628
-2.60676
-2.09063
-1.61965
-1.19466
-0.815698
-0.482044
-0.192335
0.0553337
0.263308
0.434265
0.571107
0.676848
0.754533
0.807145
0.837559
0.848484
0.842434
0.821691
0.788307
0.744082
0.690567
0.629088
0.56077
0.486573
0.407134
0.323441
0.23499
0.146289
0.0396987
-19.78
-19.5684
-19.3714
-19.238
-19.148
-19.0756
-19.0062
-18.9317
-18.846
-18.7449
-18.6261
-18.4873
-18.3257
-18.1394
-17.9266
-17.6858
-17.4155
-17.1144
-16.7812
-16.4143
-16.0128
-15.576
-15.1035
-14.5955
-14.0529
-13.4768
-12.8691
-12.2321
-11.5688
-10.8832
-10.1795
-9.46295
-8.73913
-8.01413
-7.2942
-6.58562
-5.89451
-5.22666
-4.58728
-3.98091
-3.41127
-2.88127
-2.39297
-1.94755
-1.5454
-1.18615
-0.868766
-0.591658
-0.352796
-0.1498
0.0199745
0.159317
0.271075
0.35806
0.422998
0.468469
0.496892
0.510476
0.511215
0.500868
0.480983
0.452882
0.417693
0.37637
0.329742
0.278367
0.223336
0.163084
0.106647
0.0115037
-20.9077
-20.0421
-19.4968
-19.2675
-19.1418
-19.0428
-18.9617
-18.886
-18.8007
-18.6992
-18.5794
-18.4388
-18.2745
-18.0841
-17.866
-17.6191
-17.3424
-17.0348
-16.695
-16.3216
-15.9139
-15.4712
-14.9938
-14.4824
-13.9382
-13.3629
-12.759
-12.1293
-11.4772
-10.8067
-10.1224
-9.4292
-8.73256
-8.03821
-7.35194
-6.67949
-6.02634
-5.39755
-4.79758
-4.23017
-3.6983
-3.20413
-2.74904
-2.33363
-1.95779
-1.62075
-1.32119
-1.05735
-0.827155
-0.628231
-0.45807
-0.314079
-0.193682
-0.0943725
-0.0137747
0.0503341
0.0999953
0.137062
0.163178
0.179779
0.188105
0.189225
0.184043
0.173314
0.157743
0.137652
0.114432
0.0853685
0.0628708
-0.014203
-23.1073
-20.6464
-19.4646
-19.1919
-19.0722
-18.9442
-18.8462
-18.771
-18.688
-18.5845
-18.461
-18.3169
-18.1486
-17.9525
-17.7267
-17.4709
-17.1849
-16.8681
-16.5197
-16.1386
-15.7242
-15.2762
-14.7952
-14.2825
-13.7398
-13.1696
-12.5748
-11.9586
-11.3248
-10.6774
-10.0207
-9.35952
-8.69885
-8.04389
-7.39981
-6.77164
-6.16409
-5.58136
-5.02706
-4.50408
-4.01456
-3.55993
-3.14087
-2.75741
-2.40897
-2.09445
-1.81234
-1.56081
-1.33777
-1.14099
-0.968182
-0.817068
-0.685415
-0.57111
-0.472177
-0.386815
-0.313391
-0.250454
-0.196729
-0.151123
-0.112701
-0.0806694
-0.0543476
-0.0331829
-0.0166484
-0.00451791
0.00447523
0.0072704
0.0172599
-0.0343609
-22.1839
-20.4373
-19.2367
-19.0087
-18.9406
-18.8041
-18.6808
-18.5917
-18.5019
-18.3917
-18.2608
-18.1096
-17.9339
-17.729
-17.493
-17.226
-16.9289
-16.602
-16.245
-15.8572
-15.4381
-14.9878
-14.5071
-13.9979
-13.4624
-12.9036
-12.3248
-11.7295
-11.1214
-10.5045
-9.8829
-9.26099
-8.64324
-8.03418
-7.43828
-6.85975
-6.30241
-5.76956
-5.26391
-4.78748
-4.3416
-3.92697
-3.54365
-3.19116
-2.86858
-2.57459
-2.3076
-2.06579
-1.84724
-1.64996
-1.47197
-1.31138
-1.16638
-1.03528
-0.916554
-0.808833
-0.710899
-0.621689
-0.540292
-0.465931
-0.397957
-0.335821
-0.279056
-0.227284
-0.18014
-0.137539
-0.0983642
-0.0655719
-0.0272286
-0.0472271
-19.8453
-19.256
-18.5563
-18.4076
-18.4233
-18.3762
-18.3
-18.231
-18.1554
-18.0572
-17.9338
-17.7849
-17.6077
-17.3984
-17.1561
-16.8819
-16.5778
-16.2448
-15.8834
-15.4933
-15.0743
-14.6268
-14.152
-13.6521
-13.1299
-12.5887
-12.032
-11.4635
-10.8868
-10.3057
-9.72411
-9.14581
-8.57474
-8.01472
-7.46941
-6.94212
-6.43578
-5.95276
-5.49487
-5.06329
-4.65864
-4.28095
-3.92983
-3.60446
-3.3037
-3.02617
-2.77034
-2.53457
-2.3172
-2.11658
-1.93114
-1.75941
-1.60001
-1.45169
-1.31336
-1.18404
-1.0629
-0.949195
-0.842339
-0.741818
-0.647211
-0.558163
-0.474375
-0.395616
-0.321657
-0.252483
-0.187294
-0.128454
-0.0672783
-0.0526844
-17.0228
-17.4344
-17.4587
-17.5609
-17.7112
-17.7876
-17.7915
-17.7634
-17.7148
-17.6392
-17.5319
-17.3915
-17.2167
-17.0067
-16.7621
-16.4852
-16.1784
-15.8436
-15.4814
-15.0923
-14.6765
-14.235
-13.7694
-13.2825
-12.7773
-12.2574
-11.7263
-11.1877
-10.6451
-10.1022
-9.56219
-9.0285
-8.50433
-7.99276
-7.49655
-7.01816
-6.55956
-6.12229
-5.70731
-5.31512
-4.94574
-4.5988
-4.2736
-3.96918
-3.6844
-3.41797
-3.16857
-2.93487
-2.71554
-2.50935
-2.31512
-2.1318
-1.95839
-1.79407
-1.63807
-1.48976
-1.34858
-1.21408
-1.08587
-0.96365
-0.847141
-0.736133
-0.63043
-0.529902
-0.434416
-0.34397
-0.258132
-0.178382
-0.100178
-0.052205
-15.2458
-16.0655
-16.4845
-16.7749
-17.0187
-17.1809
-17.2581
-17.2806
-17.2667
-17.2164
-17.1258
-16.9939
-16.822
-16.6121
-16.3667
-16.0887
-15.7808
-15.4452
-15.0832
-14.6957
-14.2838
-13.8494
-13.3946
-12.9224
-12.4361
-11.9392
-11.4353
-10.9279
-10.4201
-9.91501
-9.41552
-8.92435
-8.44398
-7.97667
-7.52436
-7.08868
-6.6708
-6.27152
-5.89122
-5.52992
-5.18731
-4.86283
-4.55571
-4.26506
-3.98988
-3.72915
-3.48184
-3.24696
-3.02355
-2.81074
-2.60771
-2.41375
-2.2282
-2.0505
-1.88017
-1.71679
-1.56001
-1.40954
-1.26514
-1.12661
-0.99378
-0.866505
-0.744649
-0.628142
-0.516879
-0.410885
-0.309913
-0.214789
-0.124455
-0.0482899
-13.9865
-14.9629
-15.6026
-16.05
-16.3872
-16.6252
-16.7697
-16.8422
-16.8601
-16.829
-16.7493
-16.6227
-16.4526
-16.243
-15.9973
-15.719
-15.4108
-15.0753
-14.7143
-14.3297
-13.9236
-13.4982
-13.0563
-12.601
-12.1355
-11.6631
-11.1871
-10.7104
-10.2359
-9.76605
-9.30315
-8.84923
-8.40615
-7.97544
-7.55841
-7.15597
-6.76882
-6.39725
-6.04139
-5.70098
-5.3757
-5.06497
-4.7682
-4.48462
-4.21356
-3.95422
-3.70594
-3.46797
-3.23972
-3.02053
-2.80991
-2.60733
-2.41241
-2.22471
-2.04397
-1.86984
-1.70215
-1.54063
-1.38518
-1.23559
-1.09179
-0.95362
-0.821012
-0.693863
-0.572165
-0.45581
-0.344778
-0.239209
-0.140411
-0.0436302
-13.16
-14.199
-14.95
-15.4931
-15.893
-16.1787
-16.365
-16.4694
-16.5072
-16.4875
-16.4145
-16.2922
-16.1252
-15.9178
-15.6743
-15.398
-15.0922
-14.7597
-14.4033
-14.0253
-13.6286
-13.2156
-12.7894
-12.3529
-11.9092
-11.461
-11.0112
-10.5622
-10.1164
-9.67566
-9.24186
-8.81653
-8.401
-7.99635
-7.60347
-7.22296
-6.85524
-6.50047
-6.15866
-5.82963
-5.51311
-5.20871
-4.91599
-4.63448
-4.36368
-4.10308
-3.8522
-3.61057
-3.37773
-3.15327
-2.93681
-2.728
-2.52652
-2.33209
-2.14447
-1.96344
-1.78881
-1.62041
-1.4581
-1.30177
-1.1513
-1.00661
-0.86759
-0.73412
-0.606105
-0.483495
-0.366203
-0.254251
-0.1495
-0.0401951
-12.6716
-13.7089
-14.4932
-15.0772
-15.5103
-15.8237
-16.0362
-16.163
-16.2177
-16.2099
-16.146
-16.0314
-15.8712
-15.6701
-15.4324
-15.1622
-14.8629
-14.5378
-14.19
-13.8224
-13.4378
-13.0391
-12.629
-12.2103
-11.7856
-11.3574
-10.928
-10.4995
-10.0739
-9.65283
-9.23771
-8.82993
-8.43051
-8.04045
-7.66037
-7.2909
-6.93231
-6.58491
-6.24865
-5.9236
-5.6095
-5.30625
-5.01346
-4.73094
-4.45824
-4.19513
-3.94113
-3.69602
-3.45934
-3.23088
-3.01021
-2.79717
-2.59138
-2.3927
-2.20082
-2.01565
-1.8369
-1.66453
-1.49831
-1.33825
-1.18409
-1.03582
-0.893223
-0.756302
-0.624861
-0.498852
-0.378161
-0.26277
-0.153859
-0.0389462
-12.4489
-13.4492
-14.2258
-14.8195
-15.2677
-15.5975
-15.8273
-15.9711
-16.0406
-16.045
-15.9916
-15.8865
-15.7351
-15.5425
-15.3132
-15.0513
-14.7605
-14.4443
-14.1059
-13.7483
-13.3744
-12.9868
-12.5884
-12.1816
-11.7687
-11.3522
-10.9341
-10.5162
-10.1005
-9.68833
-9.28127
-8.88044
-8.487
-8.10174
-7.72549
-7.35871
-7.00192
-6.6553
-6.31911
-5.9933
-5.67794
-5.3728
-5.07783
-4.7927
-4.51726
-4.25113
-3.99412
-3.74584
-3.50609
-3.27448
-3.05083
-2.83477
-2.62616
-2.42467
-2.23019
-2.04244
-1.86134
-1.68664
-1.51829
-1.35608
-1.19997
-1.04976
-0.905406
-0.766729
-0.633663
-0.506021
-0.383776
-0.266869
-0.155136
-0.039689
-12.5865
-13.4991
-14.2264
-14.7991
-15.2425
-15.5759
-15.8134
-15.9666
-16.0452
-16.0575
-16.0109
-15.9116
-15.7654
-15.5774
-15.3524
-15.0943
-14.8071
-14.4943
-14.1592
-13.8047
-13.4338
-13.0493
-12.6537
-12.2494
-11.8389
-11.4243
-11.0077
-10.5909
-10.1757
-9.76363
-9.35615
-8.9545
-8.55975
-8.17283
-7.79451
-7.42538
-7.06591
-6.71644
-6.37717
-6.04821
-5.72957
-5.42117
-5.12289
-4.83454
-4.5559
-4.28671
-4.02669
-3.77557
-3.53305
-3.29886
-3.07271
-2.85435
-2.64353
-2.44002
-2.24361
-2.0541
-1.87132
-1.69511
-1.52532
-1.36182
-1.2045
-1.05323
-0.907883
-0.768347
-0.634484
-0.506152
-0.383304
-0.265796
-0.152357
-0.0408372
-12.8769
-13.7453
-14.4407
-14.9918
-15.4202
-15.7421
-15.9706
-16.1164
-16.1886
-16.1953
-16.1437
-16.0399
-15.8897
-15.6981
-15.4695
-15.2083
-14.9181
-14.6025
-14.2647
-13.9077
-13.5344
-13.1474
-12.7494
-12.3427
-11.9296
-11.5123
-11.0928
-10.6731
-10.2548
-9.83953
-9.42874
-9.02369
-8.62546
-8.23502
-7.85313
-7.48042
-7.11739
-6.76439
-6.42166
-6.0893
-5.76736
-5.45579
-5.15445
-4.86317
-4.58174
-4.3099
-4.04737
-3.79389
-3.54915
-3.31288
-3.08479
-2.86461
-2.6521
-2.44703
-2.24917
-2.05833
-1.87432
-1.697
-1.52621
-1.36182
-1.2037
-1.05173
-0.905804
-0.765793
-0.631574
-0.50302
-0.380018
-0.262349
-0.149029
-0.0428616
)
;

boundaryField
{
    inlet
    {
        type            zeroGradient;
    }
    outlet
    {
        type            fixedValue;
        value           uniform 0;
    }
    upperWall
    {
        type            zeroGradient;
    }
    lowerWall
    {
        type            zeroGradient;
    }
    frontAndBack
    {
        type            empty;
    }
}


// ************************************************************************* //
