/*--------------------------------*- C++ -*----------------------------------*\
| =========                 |                                                 |
| \\      /  F ield         | OpenFOAM: The Open Source CFD Toolbox           |
|  \\    /   O peration     | Version:  2406                                  |
|   \\  /    A nd           | Website:  www.openfoam.com                      |
|    \\/     M anipulation  |                                                 |
\*---------------------------------------------------------------------------*/
FoamFile
{
    version     2.0;
    format      ascii;
    arch        "LSB;label=32;scalar=64";
    class       volScalarField;
    location    "50";
    object      p;
}
// * * * * * * * * * * * * * * * * * * * * * * * * * * * * * * * * * * * * * //

dimensions      [0 2 -2 0 0 0 0];

internalField   nonuniform List<scalar> 
150000
(
245.431
138.291
81.3002
58.0082
44.6493
35.8309
30.0555
26.0733
23.1157
20.7973
18.9101
17.3279
15.9702
14.7835
13.7312
12.7866
11.9299
11.146
10.4231
9.75174
9.12446
8.53504
7.97836
7.45015
6.94681
6.46529
6.00296
5.55758
5.12717
4.71005
4.3047
3.9098
3.52418
3.1468
2.77672
2.4131
2.05519
1.70229
1.35378
1.00909
0.667686
0.329092
-0.00714239
-0.341437
-0.674178
-1.00574
-1.33645
-1.66665
-1.99665
-2.32674
-2.65721
-2.98834
-3.3204
-3.65364
-3.98833
-4.32472
-4.66306
-5.00361
-5.34662
-5.69234
-6.04104
-6.39299
-6.74844
-7.10769
-7.47101
-7.83872
-8.21112
-8.58855
-8.97135
-9.35988
-9.75454
-10.1557
-10.564
-10.9796
-11.4033
-11.8356
-12.2771
-12.7284
-13.1904
-13.6639
-14.1497
-14.6489
-15.1626
-15.6922
-16.239
-16.8047
-17.3913
-18.0009
-18.6361
-19.2998
-19.9958
-20.7285
-21.5037
-22.3292
-23.2176
-24.1944
-25.3096
-26.5983
-28.0843
-31.2275
144.598
104.968
75.383
58.7873
47.3663
38.9147
32.8652
28.4671
25.1208
22.4769
20.3276
18.5368
17.0123
15.691
14.5286
13.4929
12.5599
11.7115
10.9335
10.2147
9.54609
8.92053
8.33201
7.77558
7.24709
6.74303
6.26042
5.7967
5.34965
4.91736
4.49813
4.09051
3.69317
3.30496
2.92486
2.55193
2.18534
1.82435
1.46825
1.11645
0.768345
0.423435
0.0812227
-0.258733
-0.596861
-0.933542
-1.26916
-1.60404
-1.93854
-2.27296
-2.60762
-2.94278
-3.27876
-3.61581
-3.95422
-4.29425
-4.63616
-4.98022
-5.3267
-5.67586
-6.02798
-6.38332
-6.74218
-7.10484
-7.47162
-7.8428
-8.21873
-8.59974
-8.98621
-9.3785
-9.77704
-10.1822
-10.5946
-11.0146
-11.4428
-11.8798
-12.3263
-12.7829
-13.2506
-13.73
-14.2222
-14.7284
-15.2497
-15.7875
-16.3434
-16.9192
-17.517
-18.1394
-18.7892
-19.47
-20.1864
-20.9439
-21.7502
-22.6151
-23.5531
-24.587
-25.7514
-27.0918
-28.7463
-31.3447
96.0773
84.8466
70.1903
58.0396
48.4259
40.7924
34.9049
30.3812
26.8296
23.9755
21.6358
19.6811
18.018
16.5801
15.3192
14.2001
13.196
12.2864
11.4554
10.6905
9.98142
9.32016
8.69997
8.11529
7.56148
7.03463
6.53141
6.04899
5.5849
5.13702
4.70351
4.28273
3.87325
3.47381
3.08327
2.70063
2.32498
1.9555
1.59145
1.23216
0.877011
0.525438
0.176922
-0.169024
-0.512844
-0.854961
-1.19577
-1.53563
-1.87491
-2.21393
-2.55303
-2.8925
-3.23264
-3.57376
-3.91613
-4.26003
-4.60575
-4.95356
-5.30373
-5.65655
-6.01229
-6.37125
-6.73373
-7.10002
-7.47043
-7.8453
-8.22495
-8.60976
-9.00008
-9.39632
-9.79891
-10.2083
-10.625
-11.0495
-11.4824
-11.9242
-12.3758
-12.8379
-13.3112
-13.7967
-14.2954
-14.8085
-15.3373
-15.8832
-16.448
-17.0335
-17.6421
-18.2765
-18.9399
-19.6363
-20.3707
-21.1492
-21.9801
-22.8737
-23.8433
-24.9069
-26.0857
-27.3972
-28.8572
-30.5021
75.4486
71.8031
63.5762
54.8089
47.2226
40.841
35.5797
31.3062
27.8227
24.9507
22.5543
20.5289
18.7932
17.2861
15.9619
14.7858
13.7309
12.7761
11.9049
11.1041
10.3631
9.6731
9.02712
8.41917
7.84431
7.29834
6.7777
6.27936
5.80069
5.3394
4.89353
4.46133
4.04127
3.63199
3.2323
2.84112
2.45748
2.08051
1.70943
1.34351
0.982116
0.624636
0.270522
-0.0807355
-0.42961
-0.776542
-1.12195
-1.46622
-1.80971
-2.1528
-2.4958
-2.83904
-3.18284
-3.52749
-3.8733
-4.22055
-4.56954
-4.92055
-5.27387
-5.62978
-5.98857
-6.35056
-6.71603
-7.0853
-7.45869
-7.83653
-8.21917
-8.60697
-9.00033
-9.39964
-9.80533
-10.2179
-10.6378
-11.0656
-11.5019
-11.9472
-12.4024
-12.8682
-13.3454
-13.8349
-14.3378
-14.8552
-15.3885
-15.9392
-16.5089
-17.0997
-17.7137
-18.3537
-19.0229
-19.725
-20.4647
-21.2475
-22.0802
-22.9704
-23.9266
-24.9569
-26.0658
-27.2435
-28.4459
-29.5829
62.8039
61.4753
56.8098
50.8491
45.1472
40.0115
35.5043
31.6441
28.3703
25.5917
23.2223
21.1876
19.4241
17.8809
16.5177
15.3029
14.211
13.2218
12.3187
11.4886
10.7207
10.0063
9.33805
8.70972
8.1162
7.55312
7.01678
6.50397
6.01196
5.53835
5.08106
4.63827
4.20835
3.78989
3.38163
2.98242
2.59126
2.20722
1.82949
1.45731
1.09
0.726919
0.367501
0.0112083
-0.342453
-0.693946
-1.0437
-1.39213
-1.73961
-2.08651
-2.43318
-2.77996
-3.12716
-3.4751
-3.82409
-4.17444
-4.52642
-4.88035
-5.23651
-5.59521
-5.95673
-6.32139
-6.68949
-7.06136
-7.43731
-7.81769
-8.20285
-8.59315
-8.98899
-9.39078
-9.79895
-10.214
-10.6363
-11.0666
-11.5054
-11.9533
-12.4109
-12.8792
-13.3588
-13.8508
-14.3562
-14.876
-15.4116
-15.9644
-16.5361
-17.1285
-17.7437
-18.3842
-19.0528
-19.7528
-20.4879
-21.2623
-22.0804
-22.9463
-23.8627
-24.829
-25.8374
-26.8635
-27.8529
-28.7116
54.1139
53.6663
50.9931
46.9983
42.7782
38.7136
34.946
31.5616
28.5779
25.9672
23.6873
21.6926
19.9391
18.3883
17.0077
15.7704
14.6538
13.6394
12.7115
11.8577
11.0675
10.3321
9.64421
8.99768
8.38727
7.80853
7.25765
6.73135
6.2268
5.74154
5.27339
4.82047
4.38111
3.95381
3.53726
3.13029
2.73183
2.34093
1.95673
1.57845
1.20537
0.836836
0.472249
0.111053
-0.247267
-0.603192
-0.95717
-1.30962
-1.66095
-2.01153
-2.36172
-2.71187
-3.06231
-3.41337
-3.76536
-4.11859
-4.47337
-4.82999
-5.18875
-5.54997
-5.91393
-6.28096
-6.65136
-7.02547
-7.4036
-7.7861
-8.17331
-8.56562
-8.9634
-9.36707
-9.77707
-10.1939
-10.6179
-11.0498
-11.4901
-11.9395
-12.3985
-12.8679
-13.3486
-13.8415
-14.3474
-14.8675
-15.4031
-15.9553
-16.5258
-17.1161
-17.7282
-18.364
-19.0259
-19.7163
-20.4378
-21.1929
-21.9837
-22.8107
-23.6721
-24.5613
-25.4638
-26.351
-27.173
-27.8552
47.9401
47.813
46.1927
43.4609
40.3326
37.1414
34.0427
31.141
28.4885
26.0966
23.9554
22.0439
20.3361
18.806
17.4302
16.1877
15.0597
14.0304
13.0858
12.2144
11.4065
10.6539
9.94937
9.28698
8.66153
8.06859
7.50435
6.96551
6.4492
5.95289
5.47439
5.01176
4.56327
4.12741
3.70281
3.28826
2.88266
2.48504
2.0945
1.71022
1.33147
0.957579
0.587914
0.221903
-0.140986
-0.50125
-0.859352
-1.21573
-1.57079
-1.92492
-2.27851
-2.63189
-2.98542
-3.33942
-3.69422
-4.05014
-4.40748
-4.76655
-5.12766
-5.4911
-5.8572
-6.22626
-6.5986
-6.97455
-7.35442
-7.73857
-8.12734
-8.5211
-8.92022
-9.32512
-9.73623
-10.154
-10.5789
-11.0115
-11.4523
-11.9019
-12.3609
-12.8302
-13.3103
-13.8022
-14.3068
-14.825
-15.3579
-15.9067
-16.4726
-17.0571
-17.6616
-18.2877
-18.937
-19.6111
-20.3113
-21.0384
-21.7925
-22.5713
-23.3699
-24.1787
-24.9807
-25.7485
-26.4411
-27.0046
43.3043
43.2763
42.2235
40.3011
37.9613
35.4576
32.9291
30.4752
28.1581
26.0091
24.0386
22.2431
20.6112
19.1281
17.779
16.549
15.424
14.3912
13.4388
12.5571
11.7373
10.9719
10.2543
9.57888
8.94064
8.33529
7.75912
7.20887
6.68169
6.17507
5.68679
5.2149
4.75766
4.31353
3.88111
3.45916
3.04658
2.64235
2.24556
1.85538
1.47104
1.09185
0.717169
0.346407
-0.0209847
-0.385517
-0.747666
-1.10788
-1.46658
-1.82417
-2.18102
-2.53751
-2.89397
-3.25076
-3.60819
-3.96659
-4.32628
-4.68756
-5.05074
-5.41613
-5.78404
-6.15478
-6.52867
-6.90603
-7.2872
-7.67251
-8.06229
-8.4569
-8.85673
-9.26215
-9.67359
-10.0915
-10.5163
-10.9486
-11.3887
-11.8374
-12.2952
-12.7627
-13.2407
-13.7299
-14.231
-14.745
-15.2728
-15.8153
-16.3735
-16.9485
-17.5415
-18.1533
-18.7849
-19.4371
-20.11
-20.8031
-21.5147
-22.2408
-22.9747
-23.7054
-24.4165
-25.0842
-25.6766
-26.1562
39.6518
39.6492
38.9217
37.5276
35.752
33.7763
31.7143
29.6518
27.649
25.744
23.9581
22.2988
20.7647
19.3501
18.0471
16.8466
15.739
14.7147
13.7646
12.8807
12.0556
11.2828
10.5566
9.87166
9.2235
8.60809
8.02187
7.46174
6.92493
6.40898
5.91173
5.43124
4.96577
4.51378
4.07388
3.64481
3.22547
2.81481
2.41192
2.01595
1.62612
1.24172
0.862103
0.486665
0.114843
-0.253883
-0.62
-0.983966
-1.34621
-1.70715
-2.06716
-2.42661
-2.78587
-3.14527
-3.50516
-3.86584
-4.22765
-4.59088
-4.95587
-5.3229
-5.69229
-6.06435
-6.4394
-6.81775
-7.19974
-7.58568
-7.97592
-8.37079
-8.77065
-9.17588
-9.58687
-10.0041
-10.4279
-10.8587
-11.2972
-11.7437
-12.1989
-12.6632
-13.1374
-13.6221
-14.1179
-14.6255
-15.1457
-15.6792
-16.2268
-16.7892
-17.367
-17.9608
-18.5708
-19.1969
-19.8384
-20.4938
-21.16
-21.8321
-22.5028
-23.1611
-23.7922
-24.3764
-24.8896
-25.306
36.6774
36.6789
36.1498
35.1083
33.7368
32.1621
30.4735
28.7415
27.0188
25.3439
23.7422
22.2272
20.8038
19.4724
18.2306
17.074
15.9969
14.9927
14.055
13.1775
12.3545
11.5805
10.8508
10.1607
9.50624
8.88374
8.28996
7.72201
7.17727
6.65342
6.14837
5.66024
5.18734
4.72816
4.28133
3.84561
3.41988
3.00311
2.59438
2.19285
1.79772
1.40828
1.02388
0.643902
0.267777
-0.105021
-0.474987
-0.842584
-1.20825
-1.5724
-1.93542
-2.29769
-2.65958
-3.02142
-3.38355
-3.7463
-4.10998
-4.47492
-4.84142
-5.20978
-5.58031
-5.95332
-6.32912
-6.70801
-7.09033
-7.47639
-7.86651
-8.26102
-8.66024
-9.06455
-9.47431
-9.88991
-10.3117
-10.7403
-11.1759
-11.6191
-12.0703
-12.5301
-12.9989
-13.4773
-13.9659
-14.4651
-14.9756
-15.4978
-16.0323
-16.5793
-17.1392
-17.7119
-18.2973
-18.8945
-19.5021
-20.1178
-20.738
-21.3573
-21.9683
-22.5609
-23.1223
-23.6366
-24.0859
-24.4522
34.1969
34.1971
33.796
32.9962
31.9171
30.6469
29.2546
27.7963
26.3161
24.8493
23.4219
22.0499
20.7417
19.5016
18.331
17.229
16.193
15.219
14.3029
13.4401
12.6265
11.8579
11.1302
10.4398
9.7832
9.15716
8.55886
7.98566
7.4352
6.90531
6.39405
5.89964
5.42046
4.95507
4.50214
4.06047
3.62896
3.20661
2.7925
2.38578
1.9857
1.59152
1.2026
0.818325
0.438118
0.0614549
-0.312163
-0.6832
-1.0521
-1.41927
-1.78511
-2.15
-2.51431
-2.87836
-3.24251
-3.60707
-3.97238
-4.33872
-4.70642
-5.07577
-5.44709
-5.82065
-6.19678
-6.57577
-6.95793
-7.34357
-7.733
-8.12651
-8.52444
-8.9271
-9.33484
-9.74801
-10.167
-10.5921
-11.0239
-11.4626
-11.9086
-12.3625
-12.8245
-13.2952
-13.7749
-14.264
-14.7628
-15.2717
-15.7909
-16.3204
-16.8602
-17.4097
-17.9684
-18.535
-19.1075
-19.6833
-20.2583
-20.8273
-21.383
-21.9167
-22.4175
-22.8729
-23.2694
-23.5944
32.0902
32.0886
31.7744
31.1451
30.2809
29.2436
28.0861
26.8524
25.5783
24.295
23.0269
21.7905
20.5959
19.4495
18.3551
17.3144
16.3269
15.3909
14.5039
13.6631
12.8657
12.1084
11.3884
10.7026
10.0482
9.4225
8.82306
8.24759
7.69399
7.16033
6.64483
6.14584
5.66188
5.19158
4.73369
4.28705
3.85063
3.42344
3.00461
2.59331
2.18879
1.79034
1.39732
1.00912
0.62518
0.244972
-0.131996
-0.506189
-0.878043
-1.24797
-1.61637
-1.98362
-2.35007
-2.71607
-3.08195
-3.44804
-3.81465
-4.18208
-4.55065
-4.92063
-5.29234
-5.66605
-6.04207
-6.42068
-6.80218
-7.18687
-7.57503
-7.96695
-8.36291
-8.76321
-9.16818
-9.57813
-9.99337
-10.4142
-10.8411
-11.2742
-11.714
-12.1607
-12.6146
-13.0762
-13.5455
-14.023
-14.5087
-15.0026
-15.5049
-16.0153
-16.5333
-17.0583
-17.5893
-18.1245
-18.6619
-19.1985
-19.7302
-20.2519
-20.7573
-21.2385
-21.6866
-22.0917
-22.4438
-22.7337
30.2757
30.2727
30.0202
29.5145
28.8111
27.9536
26.9827
25.9328
24.8325
23.7083
22.5826
21.4711
20.3844
19.3299
18.3128
17.3364
16.4019
15.509
14.6568
13.8437
13.068
12.3275
11.6202
10.9436
10.2957
9.67415
9.07706
8.50246
7.94854
7.41362
6.8961
6.39453
5.90755
5.43391
4.97244
4.52208
4.08185
3.65081
3.22814
2.81304
2.40479
2.00271
1.60617
1.21457
0.827385
0.444082
0.0641816
-0.312771
-0.687208
-1.05954
-1.43014
-1.7994
-2.16766
-2.53527
-2.90255
-3.26982
-3.63738
-4.00554
-4.37459
-4.74482
-5.11651
-5.48994
-5.8654
-6.24316
-6.6235
-7.00669
-7.39301
-7.78272
-8.17608
-8.57336
-8.97483
-9.38078
-9.79149
-10.2072
-10.6283
-11.0549
-11.4873
-11.9258
-12.3706
-12.8218
-13.2797
-13.7442
-14.2155
-14.6933
-15.1775
-15.6676
-16.163
-16.6628
-17.1655
-17.6696
-18.1725
-18.6713
-19.1622
-19.6402
-20.0999
-20.5344
-20.9366
-21.2985
-21.6125
-21.872
28.695
28.6914
28.4842
28.0705
27.4895
26.7723
25.9507
25.0514
24.097
23.1097
22.1096
21.1111
20.1244
19.1572
18.2157
17.3039
16.4241
15.5773
14.7634
13.982
13.2322
12.5128
11.8223
11.159
10.5213
9.90757
9.31616
8.74549
8.19406
7.66043
7.14325
6.64122
6.15314
5.6779
5.21444
4.76178
4.31902
3.88531
3.45986
3.04192
2.63082
2.2259
1.82657
1.43225
1.04244
0.656615
0.274321
-0.104887
-0.481428
-0.855699
-1.22808
-1.59893
-1.96859
-2.3374
-2.70567
-3.07372
-3.44183
-3.81031
-4.17944
-4.54949
-4.92073
-5.29343
-5.66786
-6.04427
-6.42294
-6.80411
-7.18804
-7.57496
-7.9651
-8.35871
-8.75602
-9.15727
-9.56269
-9.97252
-10.387
-10.8062
-11.2304
-11.6598
-12.0945
-12.5345
-12.9799
-13.4306
-13.8865
-14.3473
-14.8126
-15.2819
-15.7542
-16.2286
-16.7034
-17.1769
-17.6466
-18.1096
-18.5623
-19.0004
-19.4188
-19.8119
-20.1738
-20.4982
-20.7793
-21.012
27.3054
27.3016
27.1288
26.7851
26.2988
25.6923
24.991
24.2156
23.3836
22.5137
21.6234
20.7258
19.8304
18.9447
18.0752
17.2263
16.4011
15.6013
14.8276
14.0804
13.3593
12.664
11.9935
11.3467
10.7225
10.1196
9.53682
8.97288
8.42657
7.8967
7.38213
6.88176
6.39454
5.9195
5.45571
5.00228
4.5584
4.1233
3.69625
3.27656
2.8636
2.45677
2.0555
1.65927
1.26755
0.8799
0.495855
0.114995
-0.26308
-0.638752
-1.01238
-1.38433
-1.75491
-2.12445
-2.49326
-2.86163
-3.22985
-3.59821
-3.96696
-4.33637
-4.7067
-5.0782
-5.45113
-5.82571
-6.2022
-6.58083
-6.96182
-7.3454
-7.73175
-8.12109
-8.51361
-8.90952
-9.309
-9.71222
-10.1194
-10.5305
-10.9458
-11.3654
-11.7892
-12.2172
-12.6494
-13.0856
-13.5256
-13.9689
-14.4149
-14.8631
-15.3124
-15.7616
-16.2092
-16.6532
-17.0913
-17.5208
-17.9382
-18.3397
-18.721
-19.0774
-19.4039
-19.6956
-19.9478
-20.1568
26.0746
26.0708
25.9246
25.6353
25.2234
24.7054
24.1017
23.4287
22.6997
21.9303
21.1357
20.3277
19.5146
18.7039
17.9017
17.1129
16.3408
15.5875
14.8545
14.1425
13.4519
12.7826
12.1344
11.5065
10.8982
10.3086
9.73692
9.1821
8.64321
8.11931
7.60945
7.11272
6.62824
6.15515
5.69266
5.23999
4.79642
4.36126
3.93384
3.51356
3.09982
2.69208
2.2898
1.89251
1.49972
1.111
0.72592
0.344088
-0.0348777
-0.411339
-0.785642
-1.15812
-1.52908
-1.89883
-2.26767
-2.63588
-3.00372
-3.37146
-3.73936
-4.10766
-4.47661
-4.84644
-5.21737
-5.58964
-5.96346
-6.33904
-6.71658
-7.09628
-7.4783
-7.86281
-8.24999
-8.63999
-9.03294
-9.42898
-9.82821
-10.2307
-10.6365
-11.0456
-11.458
-11.8735
-12.2921
-12.7134
-13.137
-13.5626
-13.9893
-14.4165
-14.8431
-15.2678
-15.6891
-16.105
-16.5134
-16.9116
-17.2966
-17.665
-18.013
-18.3367
-18.632
-18.8949
-19.1217
-19.3095
24.9773
24.9739
24.8486
24.6023
24.2497
23.8031
23.2794
22.6914
22.0493
21.366
20.6547
19.9258
19.1867
18.4442
17.7043
16.9719
16.2505
15.5425
14.8496
14.1729
13.5134
12.8713
12.2467
11.6393
11.0487
10.4743
9.9156
9.37182
8.84227
8.32621
7.82288
7.33155
6.85148
6.38197
5.92231
5.47186
5.02997
4.59604
4.16948
3.74975
3.33632
2.92869
2.52637
2.12892
1.73591
1.34693
0.961582
0.579503
0.200334
-0.176261
-0.550608
-0.923016
-1.29378
-1.66319
-2.03152
-2.39903
-2.76598
-3.13261
-3.49917
-3.86587
-4.23295
-4.60062
-4.96909
-5.33856
-5.70923
-6.08127
-6.45488
-6.83021
-7.20741
-7.58661
-7.96794
-8.35152
-8.73746
-9.12582
-9.51666
-9.91
-10.3058
-10.7041
-11.1047
-11.5074
-11.912
-12.3181
-12.7254
-13.1332
-13.5409
-13.9475
-14.352
-14.7531
-15.1493
-15.5387
-15.9193
-16.2886
-16.6439
-16.9823
-17.3004
-17.595
-17.8627
-18.1001
-18.3045
-18.4734
23.9941
23.9909
23.8824
23.6706
23.3659
22.9775
22.5199
22.0029
21.4344
20.825
20.1862
19.527
18.854
18.1734
17.4907
16.8108
16.1372
15.4724
14.8183
14.1765
13.548
12.9334
12.3331
11.7471
11.1753
10.6174
10.0731
9.54179
9.02306
8.51635
8.02106
7.53661
7.06241
6.59786
6.14241
5.69548
5.25653
4.82504
4.4005
3.98242
3.57033
3.1638
2.76239
2.36568
1.9733
1.58487
1.20003
0.818439
0.43977
0.0637122
-0.310035
-0.681759
-1.05173
-1.42023
-1.78749
-2.15377
-2.51931
-2.88432
-3.24903
-3.61365
-3.97839
-4.34343
-4.70896
-5.07518
-5.44223
-5.81029
-6.17952
-6.55003
-6.92196
-7.2954
-7.67046
-8.04721
-8.42571
-8.80599
-9.18807
-9.57191
-9.95744
-10.3445
-10.7331
-11.1228
-11.5133
-11.9044
-12.2954
-12.6857
-13.0746
-13.4613
-13.8445
-14.2231
-14.5955
-14.9601
-15.3148
-15.6575
-15.9857
-16.2969
-16.5883
-16.8569
-17.1001
-17.3151
-17.4995
-17.6514
23.1089
23.106
23.0113
22.8273
22.5618
22.2214
21.8187
21.3615
20.8555
20.3097
19.734
19.1363
18.5223
17.8974
17.267
16.6356
16.0067
15.3827
14.7659
14.1578
13.5596
12.9723
12.3965
11.8324
11.28
10.7394
10.2103
9.69256
9.18576
8.68953
8.20345
7.72707
7.25992
6.80153
6.35143
5.90916
5.47426
5.04628
4.62478
4.20936
3.79958
3.39507
2.99545
2.60034
2.20941
1.82231
1.43872
1.05833
0.680851
0.305991
-0.0665223
-0.436951
-0.805549
-1.17256
-1.53821
-1.90273
-2.26634
-2.62923
-2.99161
-3.35368
-3.7156
-4.07756
-4.43972
-4.80223
-5.16525
-5.52891
-5.89334
-6.25864
-6.62491
-6.99222
-7.36064
-7.7302
-8.10094
-8.47284
-8.84587
-9.21995
-9.59498
-9.97079
-10.3472
-10.7238
-11.1004
-11.4764
-11.8514
-12.2247
-12.5955
-12.9629
-13.3258
-13.683
-14.0331
-14.3744
-14.7052
-15.0235
-15.3271
-15.6137
-15.881
-16.1265
-16.3479
-16.5429
-16.7095
-16.8463
22.309
22.3064
22.2229
22.062
21.8287
21.5282
21.1715
20.7648
20.3123
19.8214
19.3007
18.7572
18.1957
17.6211
17.0383
16.4515
15.864
15.2784
14.6968
14.121
13.5523
12.9917
12.44
11.8977
11.365
10.8421
10.3288
9.82526
9.33113
8.84621
8.37022
7.90281
7.44364
6.99235
6.54855
6.11187
5.68194
5.25839
4.84084
4.42893
4.02232
3.62066
3.22363
2.83089
2.44215
2.0571
1.67546
1.29695
0.92131
0.548273
0.177597
-0.190957
-0.557614
-0.922596
-1.28611
-1.64836
-2.00955
-2.36985
-2.72944
-3.08849
-3.44717
-3.80562
-4.16399
-4.52242
-4.88101
-5.23989
-5.59916
-5.9589
-6.31918
-6.68004
-7.04152
-7.40362
-7.76634
-8.12964
-8.49343
-8.85762
-9.22204
-9.58649
-9.95073
-10.3144
-10.6772
-11.0385
-11.3979
-11.7546
-12.108
-12.4569
-12.8005
-13.1376
-13.4668
-13.7865
-14.0953
-14.3912
-14.6724
-14.9368
-15.1825
-15.4073
-15.6092
-15.7863
-15.9372
-16.0603
21.5838
21.5816
21.5074
21.3655
21.1591
20.8921
20.5742
20.2105
19.8038
19.3604
18.8879
18.3921
17.8774
17.348
16.8083
16.2624
15.7133
15.1636
14.6152
14.07
13.5295
12.9948
12.4667
11.9459
11.4328
10.9276
10.4304
9.94137
9.46037
8.9873
8.52199
8.06421
7.61371
7.17022
6.73346
6.30313
5.87893
5.46055
5.04769
4.64004
4.23732
3.83922
3.44547
3.05579
2.6699
2.28756
1.90849
1.53247
1.15925
0.788608
0.420321
0.0541803
-0.310019
-0.672471
-1.03336
-1.39288
-1.75118
-2.10845
-2.46482
-2.82046
-3.17549
-3.53005
-3.88426
-4.23823
-4.59206
-4.94583
-5.29963
-5.65352
-6.00753
-6.36169
-6.716
-7.07044
-7.42497
-7.77951
-8.13396
-8.48819
-8.84199
-9.19514
-9.54736
-9.89828
-10.2475
-10.5945
-10.9388
-11.2796
-11.6162
-11.9476
-12.273
-12.5911
-12.9008
-13.2006
-13.489
-13.7645
-14.0253
-14.2697
-14.4959
-14.7021
-14.8866
-15.0479
-15.1845
-15.2954
20.9246
20.9227
20.8563
20.7304
20.5466
20.3078
20.0229
19.696
19.3289
18.9267
18.4963
18.0428
17.5697
17.0809
16.5804
16.0718
15.5581
15.0416
14.5244
14.0082
13.4945
12.9846
12.4794
11.9796
11.4857
10.998
10.5169
10.0425
9.5749
9.11398
8.65973
8.21201
7.77067
7.33551
6.90634
6.48292
6.06502
5.65241
5.24484
4.84205
4.44381
4.04988
3.66
3.27394
2.89148
2.51239
2.13645
1.76344
1.39317
1.02542
0.660017
0.296765
-0.0645116
-0.423985
-0.78182
-1.13817
-1.49319
-1.84702
-2.1998
-2.55164
-2.90268
-3.25301
-3.60273
-3.95194
-4.30071
-4.6491
-4.99718
-5.34497
-5.6925
-6.03976
-6.38673
-6.73337
-7.0796
-7.42532
-7.77041
-8.11468
-8.45794
-8.79992
-9.1403
-9.47874
-9.81478
-10.1479
-10.4776
-10.8031
-11.1238
-11.4387
-11.7468
-12.0473
-12.3387
-12.6201
-12.8898
-13.1466
-13.3889
-13.6151
-13.8238
-14.0133
-14.1822
-14.3293
-14.4532
-14.553
20.3242
20.3226
20.2628
20.1503
19.9856
19.7708
19.5141
19.2188
18.8859
18.5197
18.1263
17.7101
17.2742
16.8219
16.3568
15.8823
15.4011
14.9155
14.4273
13.9384
13.4502
12.9639
12.4806
12.0011
11.5259
11.0556
10.5903
10.1305
9.67623
9.22759
8.78459
8.34719
7.91531
7.48883
7.06763
6.65153
6.24038
5.83399
5.43216
5.03471
4.64143
4.25213
3.8666
3.48465
3.10608
2.73071
2.35835
1.98881
1.62192
1.25751
0.895407
0.535458
0.177506
-0.178598
-0.532994
-0.885818
-1.2372
-1.58725
-1.9361
-2.28384
-2.63057
-2.97638
-3.32134
-3.66553
-4.00899
-4.35178
-4.69393
-5.03545
-5.37634
-5.71657
-6.05609
-6.39485
-6.73273
-7.06963
-7.40538
-7.7398
-8.07264
-8.40364
-8.73246
-9.05873
-9.382
-9.70178
-10.0175
-10.3284
-10.6339
-10.9332
-11.2252
-11.5091
-11.7837
-12.048
-12.3006
-12.5403
-12.7657
-12.9755
-13.1683
-13.3428
-13.4978
-13.632
-13.7445
-13.8344
19.7763
19.7749
19.7207
19.6197
19.4714
19.277
19.0446
18.7766
18.4734
18.1386
17.7778
17.3947
16.992
16.5725
16.1395
15.6961
15.2448
14.7876
14.3265
13.8631
13.3988
12.9351
12.4727
12.0127
11.5557
11.1021
10.6524
10.2069
9.76592
9.32952
8.89782
8.47085
8.04859
7.631
7.21801
6.80952
6.40541
6.00556
5.60983
5.21806
4.83011
4.44581
4.065
3.68753
3.31324
2.94197
2.57355
2.20785
1.84472
1.484
1.12555
0.769253
0.414963
0.0625573
-0.288081
-0.637067
-0.984506
-1.3305
-1.67514
-2.01851
-2.36068
-2.70173
-3.04171
-3.38067
-3.71864
-4.05565
-4.39172
-4.72684
-5.06099
-5.39411
-5.72613
-6.05699
-6.38654
-6.71466
-7.04117
-7.36587
-7.68849
-8.00875
-8.32632
-8.64081
-8.95177
-9.2587
-9.56104
-9.85816
-10.1493
-10.4338
-10.7108
-10.9792
-11.2382
-11.4867
-11.7236
-11.9476
-12.1577
-12.3526
-12.5311
-12.692
-12.8344
-12.9571
-13.0593
-13.1403
19.2757
19.2745
19.2252
19.134
18.9996
18.8229
18.6114
18.3671
18.0898
17.7827
17.4506
17.0969
16.7239
16.3338
15.9299
15.5147
15.0908
14.66
14.224
13.7844
13.3427
12.9001
12.4577
12.0164
11.5767
11.1394
10.7048
10.2734
9.84543
9.42114
9.00067
8.58412
8.17153
7.76293
7.35828
6.95756
6.56069
6.1676
5.77819
5.39236
5.01
4.63098
4.25518
3.88248
3.51276
3.14588
2.78171
2.42015
2.06105
1.70431
1.34981
0.99744
0.647085
0.298646
-0.0479751
-0.39287
-0.736126
-1.07782
-1.41803
-1.75682
-2.09424
-2.43034
-2.76516
-3.09874
-3.43108
-3.7622
-4.09209
-4.42073
-4.74808
-5.07405
-5.39858
-5.72156
-6.04285
-6.3623
-6.67971
-6.99486
-7.3075
-7.61732
-7.92399
-8.2271
-8.52623
-8.82088
-9.1105
-9.39448
-9.67215
-9.94278
-10.2056
-10.4597
-10.7042
-10.9381
-11.1605
-11.3702
-11.5663
-11.7476
-11.9131
-12.0618
-12.1928
-12.3051
-12.398
-12.4709
18.818
18.817
18.7717
18.689
18.5667
18.4053
18.2119
17.9883
17.7337
17.4508
17.1442
16.8167
16.4701
16.1067
15.7289
15.3396
14.9408
14.5341
14.1214
13.704
13.2835
12.8609
12.4374
12.0138
11.5908
11.1691
10.7492
10.3314
9.91617
9.50376
9.09436
8.68813
8.28517
7.88555
7.48929
7.09641
6.70689
6.32068
5.93775
5.55803
5.18144
4.80789
4.43731
4.06959
3.70465
3.34238
2.98269
2.62548
2.27066
1.91812
1.56779
1.21956
0.873354
0.529091
0.186692
-0.153916
-0.492798
-0.830016
-1.16562
-1.49967
-1.83218
-2.1632
-2.49274
-2.82082
-3.14744
-3.4726
-3.79627
-4.1184
-4.43893
-4.75778
-5.07486
-5.39003
-5.70316
-6.01407
-6.32257
-6.62841
-6.93133
-7.23104
-7.52717
-7.81935
-8.10715
-8.39007
-8.6676
-8.93915
-9.20409
-9.46171
-9.71129
-9.95203
-10.1831
-10.4036
-10.6126
-10.8092
-10.9925
-11.1615
-11.3152
-11.4528
-11.5735
-11.6764
-11.7609
-11.8265
18.3992
18.3983
18.3567
18.2813
18.1694
18.0213
17.8437
17.6382
17.4035
17.1421
16.858
16.5538
16.231
15.8915
15.5376
15.1717
14.7958
14.4115
14.0203
13.6236
13.2228
12.819
12.4133
12.0066
11.5995
11.1928
10.7869
10.3823
9.97943
9.5786
9.18006
8.78398
8.39053
7.99981
7.61191
7.22687
6.84472
6.46546
6.08908
5.71556
5.34485
4.9769
4.61166
4.24907
3.88906
3.53157
3.17651
2.82383
2.47344
2.12528
1.77927
1.43535
1.09346
0.75353
0.415505
0.0793325
-0.255037
-0.587644
-0.918525
-1.24771
-1.57521
-1.90106
-2.22524
-2.54777
-2.86863
-3.18779
-3.50522
-3.82084
-4.13459
-4.44638
-4.75608
-5.06356
-5.36867
-5.67123
-5.97102
-6.2678
-6.56131
-6.85123
-7.13723
-7.41892
-7.69589
-7.96766
-8.23372
-8.49353
-8.74647
-8.9919
-9.22914
-9.45744
-9.67604
-9.88413
-10.0809
-10.2655
-10.437
-10.5947
-10.7377
-10.8653
-10.9766
-11.071
-11.1478
-11.2067
18.016
18.0153
17.9768
17.9077
17.805
17.6684
17.5048
17.3151
17.098
16.8555
16.5915
16.3081
16.0066
15.6886
15.3563
15.0118
14.6569
14.2931
13.9217
13.5442
13.1618
12.7757
12.3868
11.996
11.6041
11.2116
10.8192
10.4273
10.0364
9.64681
9.25883
8.87268
8.48856
8.10662
7.72697
7.34972
6.97491
6.60259
6.23278
5.8655
5.50072
5.13844
4.77863
4.42125
4.06628
3.71365
3.36334
3.01529
2.66945
2.32578
1.98422
1.64473
1.30726
0.971771
0.638228
0.306591
-0.0231673
-0.351074
-0.677146
-1.0014
-1.32383
-1.64444
-1.96324
-2.28019
-2.59528
-2.90846
-3.21967
-3.52883
-3.83587
-4.14067
-4.44311
-4.74304
-5.04031
-5.33471
-5.62603
-5.91403
-6.19844
-6.47895
-6.75522
-7.02687
-7.29351
-7.55468
-7.80988
-8.0586
-8.30027
-8.53428
-8.75998
-8.97671
-9.18375
-9.38037
-9.56583
-9.73936
-9.90019
-10.0476
-10.1808
-10.2991
-10.4019
-10.4885
-10.5585
-10.6113
17.6655
17.665
17.6292
17.5657
17.4709
17.3445
17.193
17.0174
16.8158
16.5901
16.3439
16.0792
15.7968
15.4983
15.1854
14.8604
14.5247
14.1797
13.8268
13.4671
13.1018
12.7322
12.3591
11.9833
11.6057
11.2268
10.8472
10.4675
10.0881
9.70941
9.33167
8.95518
8.58017
8.20683
7.8353
7.46572
7.09817
6.73274
6.36947
6.00841
5.64957
5.29298
4.93862
4.58651
4.23661
3.88892
3.54341
3.20006
2.85884
2.51973
2.18269
1.8477
1.51473
1.18375
0.854759
0.527723
0.202632
-0.120521
-0.441739
-0.761019
-1.07835
-1.39373
-1.70713
-2.01853
-2.32787
-2.6351
-2.94014
-3.24292
-3.54334
-3.84128
-4.13659
-4.42914
-4.71875
-5.00523
-5.28834
-5.56785
-5.84349
-6.11494
-6.38189
-6.64396
-6.90077
-7.15187
-7.3968
-7.63507
-7.86614
-8.08945
-8.30439
-8.51034
-8.70665
-8.89266
-9.06768
-9.23103
-9.38201
-9.51995
-9.64419
-9.75411
-9.84912
-9.92868
-9.99232
-10.0396
17.3453
17.3449
17.3114
17.2528
17.1651
17.0476
16.9068
16.7435
16.5557
16.345
16.1147
15.8666
15.6015
15.3205
15.0253
14.718
14.3999
14.0722
13.7361
13.3929
13.0436
12.6894
12.3311
11.9695
11.6054
11.2394
10.8721
10.504
10.1356
9.76734
9.39949
9.03236
8.6662
8.30124
7.93765
7.5756
7.21519
6.85655
6.49975
6.14486
5.79192
5.44099
5.09209
4.74523
4.40043
4.05769
3.71701
3.37839
3.04183
2.70731
2.37483
2.04437
1.71594
1.38951
1.0651
0.742694
0.422297
0.103917
-0.212434
-0.526742
-0.838988
-1.14915
-1.45719
-1.76305
-2.0667
-2.36804
-2.66701
-2.96351
-3.25742
-3.54863
-3.83699
-4.12234
-4.40451
-4.68329
-4.95846
-5.22978
-5.49698
-5.75976
-6.01779
-6.27072
-6.51818
-6.75974
-6.99497
-7.22339
-7.4445
-7.65778
-7.86266
-8.05858
-8.24493
-8.4211
-8.58648
-8.74044
-8.88236
-9.01163
-9.12766
-9.22988
-9.31779
-9.39088
-9.44875
-9.49101
17.053
17.0527
17.0214
16.967
16.8854
16.7758
16.6445
16.4922
16.3166
16.1192
15.9032
15.67
15.4204
15.1552
14.8761
14.5849
14.2828
13.971
13.6505
13.3225
12.9881
12.6482
12.3037
11.9554
11.604
11.2502
10.8945
10.5376
10.1797
9.82145
9.4631
9.105
8.74742
8.39059
8.03473
7.68002
7.32661
6.97462
6.62418
6.27538
5.92828
5.58296
5.23946
4.89783
4.5581
4.2203
3.88445
3.55056
3.21866
2.88874
2.56082
2.23491
1.91102
1.58916
1.26933
0.951553
0.635848
0.322233
0.0107314
-0.298631
-0.605825
-0.910808
-1.21353
-1.51394
-1.81195
-2.1075
-2.40049
-2.69082
-2.97837
-3.26301
-3.54459
-3.82294
-4.09789
-4.36923
-4.63674
-4.90018
-5.15928
-5.41374
-5.66326
-5.90749
-6.14606
-6.37859
-6.60464
-6.82378
-7.03554
-7.23942
-7.43491
-7.62147
-7.79856
-7.96562
-8.12208
-8.26737
-8.40094
-8.52223
-8.63071
-8.72588
-8.80727
-8.87445
-8.92703
-8.96468
16.7867
16.7865
16.757
16.7065
16.6303
16.5277
16.4048
16.2622
16.0975
15.912
15.7086
15.4889
15.2532
15.0023
14.7378
14.4613
14.1738
13.8766
13.5705
13.2565
12.9358
12.6092
12.2776
11.9418
11.6024
11.2601
10.9154
10.569
10.2212
9.87249
9.52326
9.17383
8.82451
8.47555
8.12718
7.7796
7.43301
7.08753
6.74332
6.40049
6.05913
5.71934
5.38118
5.04472
4.71001
4.37711
4.04605
3.71687
3.3896
3.06426
2.74089
2.41951
2.10015
1.78282
1.46756
1.1544
0.843359
0.534475
0.227781
-0.0766857
-0.378879
-0.678745
-0.976222
-1.27124
-1.56372
-1.85358
-2.14071
-2.42501
-2.70634
-2.98458
-3.25957
-3.53114
-3.7991
-4.06326
-4.32339
-4.57925
-4.83058
-5.07709
-5.31848
-5.55443
-5.78457
-6.00854
-6.22594
-6.43634
-6.63931
-6.83438
-7.02109
-7.19893
-7.3674
-7.52599
-7.67418
-7.81146
-7.93732
-8.05125
-8.15279
-8.24148
-8.31689
-8.37864
-8.42637
-8.45979
16.5447
16.5446
16.5168
16.4696
16.3982
16.3018
16.1863
16.0523
15.8974
15.7225
15.5305
15.3229
15.0997
14.8618
14.6105
14.3473
14.0732
13.7893
13.4963
13.1954
12.8873
12.5732
12.2536
11.9294
11.6013
11.2698
10.9355
10.599
10.2607
9.92114
9.58062
9.23951
8.89812
8.55673
8.21559
7.87493
7.53494
7.1958
6.85766
6.52066
6.18492
5.85055
5.51764
5.18627
4.85652
4.52846
4.20213
3.87761
3.55493
3.23413
2.91527
2.59839
2.28351
1.97069
1.65996
1.35136
1.04494
0.740732
0.438786
0.139153
-0.158108
-0.452932
-0.745248
-1.03498
-1.32203
-1.60631
-1.88772
-2.16613
-2.44141
-2.71343
-2.98202
-3.24701
-3.50823
-3.76546
-4.01849
-4.26708
-4.51097
-4.74989
-4.98354
-5.2116
-5.43375
-5.64962
-5.85883
-6.061
-6.25571
-6.44253
-6.62102
-6.79071
-6.95116
-7.10188
-7.2424
-7.37226
-7.49098
-7.59813
-7.69327
-7.77598
-7.84589
-7.90264
-7.94592
-7.97545
16.3255
16.3254
16.299
16.2548
16.1877
16.0968
15.988
15.8617
15.7154
15.55
15.3683
15.1714
14.9596
14.7334
14.494
14.2429
13.9811
13.7093
13.4285
13.1395
12.8432
12.5405
12.2321
11.9188
11.6011
11.2798
10.9553
10.6282
10.2989
9.96801
9.63578
9.3026
8.9688
8.63468
8.30051
7.96651
7.63291
7.29991
6.96767
6.63635
6.30609
5.97701
5.64924
5.32286
4.99798
4.67467
4.35301
4.03307
3.71492
3.39861
3.0842
2.77175
2.46132
2.15294
1.84669
1.54259
1.24072
0.94112
0.643851
0.348978
0.0565696
-0.2333
-0.520551
-0.805096
-1.08684
-1.36568
-1.64149
-1.91417
-2.18357
-2.44955
-2.71194
-2.97059
-3.22529
-3.47585
-3.72206
-3.96367
-4.20045
-4.43211
-4.65839
-4.87896
-5.09352
-5.30173
-5.50322
-5.69763
-5.88458
-6.06365
-6.23444
-6.39653
-6.54949
-6.69288
-6.82628
-6.94925
-7.06137
-7.16224
-7.25146
-7.32866
-7.3935
-7.44565
-7.48483
-7.51079
16.1276
16.1277
16.1026
16.061
15.9977
15.9116
15.8087
15.6893
15.5507
15.3938
15.2213
15.0342
14.8325
14.6169
14.3884
14.1483
13.8976
13.637
13.3672
13.0892
12.8037
12.5116
12.2136
11.9104
11.6025
11.2907
10.9754
10.6571
10.3364
10.0136
9.68926
9.36364
9.03708
8.70992
8.38241
8.05482
7.72738
7.40029
7.07376
6.74795
6.42301
6.09909
5.77633