/*--------------------------------*- C++ -*----------------------------------*\
| =========                 |                                                 |
| \\      /  F ield         | OpenFOAM: The Open Source CFD Toolbox           |
|  \\    /   O peration     | Version:  2406                                  |
|   \\  /    A nd           | Website:  www.openfoam.com                      |
|    \\/     M anipulation  |                                                 |
\*---------------------------------------------------------------------------*/
FoamFile
{
    version     2.0;
    format      ascii;
    arch        "LSB;label=32;scalar=64";
    class       surfaceScalarField;
    location    "50";
    object      phi;
}
// * * * * * * * * * * * * * * * * * * * * * * * * * * * * * * * * * * * * * //

dimensions      [0 3 -1 0 0 0 0];

oriented        oriented;

internalField   nonuniform List<scalar> 
2900
(
0.921606
0.0783937
0.820866
0.100739
0.727545
0.0933208
0.649093
0.0784509
0.58715
0.0619429
0.541595
0.045555
0.511276
0.0303181
0.495045
0.0162292
0.492567
0.00247674
-0.021093
0.513658
1.05412
0.0242768
1.09008
0.0647787
1.10507
0.0783278
1.10493
0.0785901
1.09536
0.0715077
1.08163
0.0592879
1.0679
0.0440517
1.05695
0.0271719
1.05047
0.00895279
-0.0124159
1.0418
1.01422
0.010053
1.0471
0.0319026
1.08359
0.0418358
1.1181
0.0440787
1.14763
0.0419748
1.17091
0.036013
1.1883
0.0266606
1.20074
0.014728
1.20881
0.000883826
-0.014778
1.21117
1.00601
0.00404374
1.02594
0.0119734
1.05219
0.0155835
1.08092
0.0153432
1.11006
0.0128369
1.13768
0.00839214
1.16234
0.00200101
1.18318
-0.00611545
1.19977
-0.0156995
-0.0265205
1.21151
1.00522
-0.00117752
1.02074
-0.0035475
1.04244
-0.00611434
1.06681
-0.00902394
1.09207
-0.0124257
1.11691
-0.0164534
1.14015
-0.0212317
1.1609
-0.0268674
1.17859
-0.0333895
-0.0406834
1.19275
1.00515
-0.0063235
1.02047
-0.0188696
1.04186
-0.0275108
1.06588
-0.0330452
1.09082
-0.0373606
1.11541
-0.0410425
1.1385
-0.0443232
1.15927
-0.0476374
1.17722
-0.0513368
-0.0554954
1.19203
1.00579
-0.0121109
1.02524
-0.0383191
1.05089
-0.0531651
1.07903
-0.0611827
1.10754
-0.0658761
1.1344
-0.0678986
1.15805
-0.0679746
1.17767
-0.0672565
1.19292
-0.0665895
-0.066321
1.20375
1.01414
-0.0262501
1.04665
-0.0708314
1.08234
-0.0888573
1.11519
-0.0940344
1.14166
-0.0923401
1.15998
-0.0862216
1.17023
-0.0782268
1.17338
-0.0703996
1.17051
-0.0637167
-0.0584086
1.16259
1.054
-0.0802514
1.08822
-0.10505
1.09925
-0.0998911
1.09234
-0.0871226
1.07275
-0.0727458
1.04536
-0.0588358
1.01394
-0.0468023
0.980802
-0.0372635
0.947226
-0.0301402
-0.0250384
0.913857
0.919749
0.814699
0.714807
0.627685
0.554939
0.496103
0.449301
0.412038
0.381898
0.35686
-0.000450224
0.000449685
-0.00254137
0.0020899
-0.00566845
0.003126
-0.00920949
0.00354022
-0.0128774
0.00366729
-0.0165783
0.00370036
-0.0202909
0.00371225
-0.0240107
0.00371938
-0.0277314
0.00372034
-0.0314438
0.00371195
-0.0351364
0.0036921
-0.0387963
0.00365925
-0.042411
0.00361394
-0.0459682
0.00355639
-0.0494551
0.00348588
-0.052858
0.00340172
-0.0561616
0.00330236
-0.059348
0.00318512
-0.0623961
0.00304683
-0.065281
0.0028837
-0.067974
0.00269211
-0.0704434
0.00246862
-0.0726535
0.00220978
-0.0745664
0.00191296
-0.0761417
0.00157578
-0.077337
0.00119625
-0.0781088
0.000773212
-0.0784138
0.000306975
-0.0782101
-0.000201568
-0.0774598
-0.000747635
-0.0761322
-0.00132493
-0.0742043
-0.00192453
-0.0716642
-0.00253655
-0.0685109
-0.00314887
-0.0647559
-0.00375066
-0.0604204
-0.00433029
-0.0555386
-0.00487684
-0.0501552
-0.00537799
-0.0443274
-0.00582281
-0.0381203
-0.00620192
-0.0316043
-0.00651094
-0.0248522
-0.00674686
-0.0179407
-0.00690625
-0.0109469
-0.00698861
-0.00394372
-0.00699809
0.00300315
-0.00694174
0.00983179
-0.00682353
0.0164849
-0.006648
0.0229131
-0.00642307
0.0290743
-0.00615624
0.0349348
-0.00585543
0.0404684
-0.00552869
0.0456571
-0.00518389
0.0504904
-0.00482855
0.0549647
-0.00446967
0.0590829
-0.00411367
0.0628535
-0.00376625
0.06629
-0.0034324
0.0694103
-0.00311639
0.0722357
-0.0028218
0.0747905
-0.00255149
0.0771013
-0.00230766
0.0791961
-0.00209198
0.0811046
-0.0019059
0.0828573
-0.00175079
0.0844882
-0.00162901
0.0860297
-0.0015419
0.0875412
-0.00151235
0.0890193
-0.00147971
-0.00191867
-0.00272415
0.00317261
-0.00907508
0.00843771
-0.0173769
0.0114254
-0.0264489
0.0126104
-0.0356956
0.0129126
-0.0448736
0.0128772
-0.0538934
0.012731
-0.0627181
0.012543
-0.0713236
0.0123245
-0.0796864
0.0120734
-0.087783
0.0117871
-0.0955899
0.0114644
-0.103082
0.0111044
-0.110234
0.0107055
-0.117015
0.0102648
-0.123394
0.00977768
-0.129332
0.00923791
-0.134788
0.00863733
-0.13971
0.00796644
-0.144044
0.00721537
-0.147729
0.00637537
-0.1507
0.00543918
-0.152892
0.00440145
-0.154237
0.00325921
-0.154671
0.00201194
-0.154131
0.00065903
-0.152559
-0.000794799
-0.149907
-0.00233947
-0.14614
-0.00396256
-0.141233
-0.00564836
-0.135176
-0.00737448
-0.127977
-0.00911515
-0.119662
-0.0108416
-0.110277
-0.0125233
-0.0998848
-0.0141315
-0.0885623
-0.0156412
-0.0763991
-0.0170278
-0.0634946
-0.0182705
-0.04996
-0.0193452
-0.0359208
-0.0202294
-0.0215056
-0.0209144
-0.00683776
-0.0214031
0.00796554
-0.021698
0.022796
-0.0218077
0.037554
-0.0217451
0.052141
-0.0215178
0.0664622
-0.0211338
0.0804306
-0.0206055
0.0939676
-0.0199493
0.107005
-0.019183
0.119486
-0.0183256
0.131364
-0.0173964
0.142605
-0.0164146
0.153186
-0.015399
0.163093
-0.0143675
0.172326
-0.0133368
0.180891
-0.0123224
0.188806
-0.0113381
0.196094
-0.0103961
0.202787
-0.00950705
0.208922
-0.00868
0.214544
-0.00792246
0.219698
-0.00724057
0.224437
-0.00663967
0.228815
-0.00612393
0.232887
-0.0056996
0.236711
-0.00536627
0.240349
-0.00515385
0.243842
-0.00497557
-0.0053319
-0.00514136
0.00831259
-0.0154896
0.0187831
-0.0280026
0.0239363
-0.0410929
0.0256989
-0.0540369
0.0258551
-0.0665365
0.0253755
-0.0784754
0.0246687
-0.0898052
0.0238715
-0.1005
0.023018
-0.11054
0.0221121
-0.119907
0.021153
-0.128582
0.0201386
-0.136545
0.0190657
-0.143771
0.0179298
-0.150232
0.0167238
-0.155894
0.015438
-0.160718
0.0140611
-0.164661
0.0125791
-0.167673
0.010977
-0.169699
0.00924046
-0.170682
0.00735837
-0.170567
0.00532415
-0.1693
0.003135
-0.166831
0.00079142
-0.163119
-0.00169736
-0.158139
-0.00431727
-0.151876
-0.00705467
-0.144318
-0.00989254
-0.135468
-0.0128066
-0.125345
-0.0157652
-0.113983
-0.0187301
-0.101431
-0.0216593
-0.0877566
-0.0245079
-0.0730454
-0.0272258
-0.0573982
-0.0297703
-0.0409245
-0.0321062
-0.0237441
-0.0341995
-0.00598969
-0.0360162
0.012203
-0.0375295
0.030716
-0.0387344
0.0494436
-0.0396346
0.0682737
-0.040226
0.0870917
-0.0405091
0.105784
-0.0404933
0.12424
-0.0401935
0.142356
-0.0396262
0.16004
-0.0388106
0.177211
-0.0377698
0.1938
-0.0365302
0.209745
-0.0351203
0.224997
-0.03357
0.239518
-0.0319094
0.25328
-0.0301688
0.266265
-0.0283773
0.278468
-0.026563
0.289891
-0.0247521
0.300545
-0.022969
0.310449
-0.0212357
0.319631
-0.019572
0.328125
-0.0179954
0.335972
-0.0165209
0.343216
-0.0151615
0.349908
-0.013928
0.356102
-0.0128299
0.361856
-0.0118748
0.367229
-0.011071
0.372282
-0.0104202
0.377072
-0.00994642
0.38168
-0.00958608
-0.00958592
-0.00728579
0.0155974
-0.0207845
0.0322791
-0.0360748
0.0392243
-0.0512412
0.0408637
-0.0655572
0.0401698
-0.0787749
0.0385921
-0.0908275
0.0367201
-0.101712
0.0347547
-0.111444
0.0327488
-0.120042
0.030709
-0.127521
0.0286316
-0.133892
0.0265091
-0.13916
0.0243319
-0.14332
0.0220889
-0.146363
0.0197666
-0.148276
0.0173494
-0.149036
0.0148209
-0.148621
0.012163
-0.147001
0.00935712
-0.144149
0.00638809
-0.140035
0.00324503
-0.134635
-7.52319e-05
-0.127935
-0.00356318
-0.11994
-0.00720161
-0.110659
-0.0109765
-0.100104
-0.0148689
-0.0882996
-0.0188557
-0.0752788
-0.0229094
-0.0610884
-0.0269925
-0.0457903
-0.0310582
-0.0294616
-0.0350533
-0.0121973
-0.0389177
0.00589102
-0.0425906
0.0246909
-0.0460207
0.0440964
-0.0491714
0.064
-0.0520059
0.0842891
-0.0544849
0.104852
-0.0565756
0.125581
-0.0582548
0.146364
-0.0595133
0.167083
-0.0603496
0.187627
-0.0607663
0.207894
-0.0607719
0.227787
-0.0603822
0.247217
-0.0596192
0.266105
-0.0585089
0.284381
-0.0570813
0.301986
-0.0553702
0.318873
-0.053412
0.335004
-0.0512456
0.350351
-0.0489108
0.364894
-0.0464474
0.378625
-0.0438947
0.391544
-0.0412907
0.403658
-0.0386714
0.414982
-0.0360707
0.425538
-0.0335196
0.435354
-0.0310463
0.444462
-0.0286761
0.452903
-0.0264313
0.460717
-0.0243312
0.467952
-0.0223927
0.474657
-0.0206298
0.480885
-0.0190546
0.48669
-0.0176775
0.492128
-0.0165074
0.497258
-0.0155514
0.502126
-0.0148171
0.506849
-0.0143099
-0.0139511
-0.00908048
0.0246764
-0.0244233
0.0476193
-0.0404173
0.0552162
-0.0550976
0.0555422
-0.0679402
0.0530109
-0.078881
0.0495315
-0.0879941
0.0458318
-0.0953874
0.0421467
-0.101164
0.038524
-0.105411
0.034955
-0.1082
0.0314191
-0.109586
0.0278948
-0.109613
0.024358
-0.108312
0.0207863
-0.105703
0.0171568
-0.101801
0.0134459
-0.0966125
0.00963201
-0.090145
0.00569484
-0.082403
0.00161478
-0.0733932
-0.00262179
-0.063131
-0.00701692
-0.051642
-0.0115636
-0.0389543
-0.0162498
-0.0250993
-0.0210551
-0.010118
-0.0259558
0.0059395
-0.0309241
0.0230092
-0.0359228
0.0410088
-0.0409063
0.0598462
-0.045827
0.0794245
-0.0506336
0.0996427
-0.0552687
0.120399
-0.0596715
0.141592
-0.0637821
0.163122
-0.0675487
0.184879
-0.0709273
0.206752
-0.0738778
0.228633
-0.0763646
0.250418
-0.0783595
0.272008
-0.0798444
0.293309
-0.080812
0.314226
-0.0812646
0.334673
-0.0812114
0.354572
-0.0806691
0.373854
-0.0796619
0.392458
-0.0782203
0.410332
-0.0763796
0.427433
-0.07418
0.443731
-0.0716648
0.459203
-0.0688802
0.473834
-0.0658737
0.487621
-0.0626939
0.500566
-0.0593886
0.51268
-0.0560046
0.523979
-0.0525865
0.534488
-0.0491766
0.544235
-0.045814
0.553253
-0.0425346
0.561581
-0.0393705
0.569259
-0.0363505
0.57633
-0.0334998
0.582841
-0.03084
0.588841
-0.0283897
0.594379
-0.0261647
0.599504
-0.0241782
0.60427
-0.0224413
0.608726
-0.0209632
0.61293
-0.019755
0.616919
-0.0188081
0.62081
-0.0182026
-0.0175709
-0.0105805
0.0352559
-0.0260036
0.0630393
-0.0398141
0.0690242
-0.0506579
0.066384
-0.0586026
0.0609539
-0.0639361
0.0548633
-0.0669484
0.0488424
-0.0678989
0.0430954
-0.0669976
0.0376211
-0.0644058
0.0323616
-0.0602499
0.0272619
-0.0546333
0.0222769
-0.0476358
0.0173592
-0.0393188
0.012468
-0.0297328
0.0075695
-0.0189197
0.00263161
-0.00691435
-0.00237435
0.0062532
-0.00747343
0.0205502
-0.0126827
0.0359355
-0.0180074
0.0523599
-0.0234414
0.0697678
-0.0289712
0.0880958
-0.0345773
0.107275
-0.0402331
0.127226
-0.0459065
0.147864
-0.0515607
0.169096
-0.0571538
0.190828
-0.0626372
0.212961
-0.0679585
0.235391
-0.0730625
0.258014
-0.0778913
0.28073
-0.0823862
0.303439
-0.0864909
0.326046
-0.0901553
0.348455
-0.0933359
0.370573
-0.0959957
0.392313
-0.0981047
0.413595
-0.0996413
0.434345
-0.100594
0.454494
-0.100961
0.47398
-0.10075
0.492749
-0.0999793
0.510754
-0.0986727
0.527955
-0.0968623
0.544323
-0.0945868
0.559835
-0.0918899
0.574476
-0.0888199
0.588242
-0.0854282
0.601132
-0.0817686
0.613156
-0.0778958
0.624329
-0.0738648
0.634672
-0.0697295
0.644211
-0.0655419
0.652978
-0.0613515
0.661008
-0.0572046
0.66834
-0.0531436
0.675015
-0.0492072
0.681076
-0.0454299
0.686569
-0.0418419
0.691541
-0.0384696
0.696038
-0.0353355
0.700109
-0.0324583
0.7038
-0.0298541
0.707158
-0.0275355
0.710232
-0.0255142
0.713067
-0.0237964
0.71571
-0.0223994
0.718197
-0.021296
0.720618
-0.0206244
-0.019825
-0.0117512
0.0470054
-0.0245209
0.0758057
-0.0317758
0.0762765
-0.0341905
0.0687965
-0.0330271
0.0597884
-0.0290403
0.0508744
-0.0227147
0.0425146
-0.014429
0.0348074
-0.00446866
0.0276585
0.00695849
0.0209325
0.019697
0.0145215
0.0336278
0.00834431
0.0486589
0.00232622
0.0647214
-0.00359623
0.081768
-0.0094788
0.0997546
-0.0153565
0.118629
-0.0212496
0.138327
-0.0271729
0.158779
-0.0331356
0.179911
-0.0391391
0.201644
-0.0451751
0.2239
-0.0512277
0.246597
-0.0572738
0.269648
-0.0632841
0.292965
-0.0692235
0.316457
-0.0750521
0.340029
-0.0807254
0.363587
-0.0861945
0.387037
-0.0914078
0.410287
-0.0963117
0.433248
-0.100852
0.455837
-0.104975
0.477976
-0.10863
0.499595
-0.111773
0.520624
-0.114366
0.541005
-0.116376
0.560682
-0.117782
0.579608
-0.118568
0.597744
-0.118729
0.615055
-0.118272
0.631514
-0.117209
0.647099
-0.115565
0.661796
-0.11337
0.675597
-0.110663
0.6885
-0.10749
0.70051
-0.103899
0.711636
-0.0999461
0.721896
-0.0956879
0.731311
-0.0911836
0.739909
-0.0864927
0.747719
-0.0816746
0.754777
-0.0767868
0.76112
-0.0718846
0.766789
-0.0670199
0.771826
-0.0622408
0.776275
-0.0575912
0.780179
-0.0531106
0.783583
-0.0488338
0.786533
-0.0447911
0.789073
-0.0410083
0.791245
-0.0375073
0.793094
-0.0343059
0.794659
-0.031419
0.795982
-0.0288581
0.797102
-0.0266331
0.798055
-0.0247495
0.798878
-0.0232228
0.799601
-0.02202
0.800276
-0.0212998
-0.0204275
-0.0118305
0.0588341
-0.0154409
0.0794127
-0.00837768
0.0692106
0.00427229
0.0561443
0.0197147
0.044344
0.037019
0.033568
0.0557608
0.0237707
0.075604
0.014962
0.0963185
0.00694193
0.117756
-0.000506976
0.139825
-0.00754969
0.162471
-0.014303
0.185636
-0.0208403
0.209257
-0.0272189
0.233263
-0.0334864
0.257584
-0.0396786
0.282152
-0.0458193
0.306901
-0.0519233
0.331763
-0.057998
0.356666
-0.0640425
0.381538
-0.070048
0.406308
-0.0759982
0.430904
-0.0818701
0.455254
-0.087634
0.479286
-0.0932553
0.502929
-0.0986946
0.526112
-0.103909
0.54877
-0.108851
0.570837
-0.113475
0.592254
-0.117729
0.612968
-0.121565
0.632929
-0.124936
0.652097
-0.127798
0.670435
-0.130112
0.687914
-0.131845
0.70451
-0.132972
0.720204
-0.133476
0.734983
-0.133347
0.748839
-0.132587
0.761772
-0.131204
0.773781
-0.129219
0.784875
-0.12666
0.795066
-0.123561
0.80437
-0.119968
0.812808
-0.115928
0.820406
-0.111498
0.827195
-0.106736
0.833208
-0.101702
0.838484
-0.0964602
0.843063
-0.0910721
0.846987
-0.0855994
0.850301
-0.0801013
0.85305
-0.0746338
0.855279
-0.0692492
0.857033
-0.0639953
0.858356
-0.0589151
0.859293
-0.054047
0.859883
-0.0494242
0.860167
-0.0450752
0.860182
-0.0410239
0.859965
-0.03729
0.859549
-0.0338895
0.858965
-0.0308347
0.858242
-0.0281353
0.857408
-0.0257991
0.856488
-0.0238284
0.855502
-0.0222381
0.854473
-0.0209916
0.853411
-0.0202385
-0.0193779
-0.00303267
0.0618651
0.0220734
0.0543038
0.0564323
0.0348497
0.0914529
0.021122
0.125616
0.0101795
0.158903
0.000279037
0.1914
-0.00872856
0.223206
-0.016846
0.254393
-0.0242469
0.285014
-0.031129
0.315085
-0.0376219
0.344599
-0.0438187
0.373552
-0.0497951
0.401944
-0.0556123
0.429773
-0.0613159
0.45703
-0.0669369
0.483704
-0.0724944
0.509778
-0.0779988
0.535233
-0.0834529
0.560042
-0.0888525
0.58418
-0.0941864
0.607618
-0.0994365
0.630326
-0.104579
0.652276
-0.109584
0.673437
-0.114416
0.69378
-0.119038
0.71328
-0.123407
0.731909
-0.12748
0.749645
-0.13121
0.766468
-0.134552
0.782363
-0.13746
0.797317
-0.13989
0.811321
-0.141802
0.824371
-0.143162
0.836467
-0.14394
0.847609
-0.144115
0.857805
-0.143672
0.867063
-0.142607
0.875399
-0.140923
0.882829
-0.138635
0.889374
-0.135765
0.89506
-0.132347
0.899918
-0.12842
0.903981
-0.124032
0.907288
-0.119237
0.909883
-0.114094
0.91181
-0.108665
0.913118
-0.103013
0.913859
-0.0972025
0.914084
-0.0912981
0.913843
-0.0853609
0.91319
-0.0794493
0.912173
-0.073618
0.910839
-0.0679169
0.909234
-0.0623912
0.907399
-0.0570809
0.905372
-0.0520209
0.903188
-0.0472408
0.900878
-0.0427658
0.898469
-0.0386161
0.895987
-0.0348081
0.893451
-0.0313545
0.890881
-0.0282648
0.888291
-0.0255455
0.885694
-0.0232015
0.883098
-0.0212337
0.88051
-0.0196501
0.87794
-0.0184224
0.875361
-0.0176594
-0.0168908
0.0926064
-0.0307429
0.169203
-0.0222947
0.231262
-0.0272096
0.285583
-0.0331994
0.334132
-0.0383704
0.378018
-0.043608
0.418207
-0.0489193
0.455433
-0.0540731
0.4902
-0.0590145
0.522859
-0.0637895
0.55368
-0.068443
0.582867
-0.0730068
0.610579
-0.0775087
0.636941
-0.0819747
0.662048
-0.0864241
0.685978
-0.0908681
0.708793
-0.09531
0.730541
-0.0997471
0.751259
-0.104171
0.770976
-0.10857
0.789713
-0.112924
0.807488
-0.117211
0.824311
-0.121402
0.840192
-0.125464
0.855135
-0.12936
0.869146
-0.133048
0.882226
-0.136486
0.894375
-0.139629
0.905595
-0.142429
0.915885
-0.144842
0.925246
-0.14682
0.933679
-0.148323
0.941188
-0.149311
0.947778
-0.149751
0.953454
-0.149617
0.958227
-0.148888
0.962111
-0.147556
0.965123
-0.145619
0.967287
-0.143087
0.96863
-0.139979
0.969186
-0.136323
0.968997
-0.132159
0.968106
-0.127532
0.966567
-0.122494
0.964433
-0.117106
0.961766
-0.111429
0.958626
-0.105527
0.955077
-0.0994659
0.951183
-0.0933101
0.947004
-0.0871217
0.942601
-0.0809596
0.938028
-0.0748789
0.933338
-0.0689296
0.928576
-0.0631569
0.923784
-0.0576004
0.918996
-0.0522946
0.914242
-0.0472686
0.909547
-0.0425467
0.904929
-0.0381487
0.900402
-0.0340902
0.895977
-0.0303831
0.891658
-0.0270361
0.887447
-0.024055
0.883345
-0.0214433
0.879345
-0.0192028
0.875443
-0.017332
0.871626
-0.015833
0.867891
-0.0146885
0.864181
-0.0139487
-0.0133478
0.532638
-0.0497233
0.570179
-0.0598367
0.606904
-0.0639336
0.641458
-0.0677539
0.674088
-0.0710002
0.704343
-0.0738628
0.732154
-0.0767304
0.757775
-0.0796946
0.78148
-0.0827196
0.803481
-0.0857908
0.823954
-0.088917
0.843054
-0.0921064
0.860908
-0.0953628
0.87762
-0.0986874
0.893274
-0.102079
0.90794
-0.105534
0.921671
-0.109042
0.934515
-0.112591
0.946506
-0.116163
0.957674
-0.119737
0.968037
-0.123287
0.977611
-0.126785
0.986404
-0.130195
0.994421
-0.13348
1.00166
-0.136599
1.00812
-0.139506
1.01379
-0.142156
1.01866
-0.144501
1.02273
-0.146492
1.02597
-0.148083
1.02838
-0.149229
1.02995
-0.14989
1.03066
-0.150029
1.03053
-0.149617
1.02955
-0.148633
1.02772
-0.147066
1.02508
-0.144912
1.02164
-0.142179
1.01744
-0.138886
1.01252
-0.135061
1.00694
-0.130743
1.00075
-0.125977
0.994035
-0.120816
0.986859
-0.11532
0.979301
-0.109551
0.971442
-0.103572
0.96336
-0.097448
0.955135
-0.0912431
0.94684
-0.0850175
0.938544
-0.0788284
0.930311
-0.0727285
0.922195
-0.0667654
0.914245
-0.0609816
0.9065
-0.0554139
0.898992
-0.0500939
0.891744
-0.0450481
0.884772
-0.0402981
0.878086
-0.0358614
0.871687
-0.0317514
0.865574
-0.027978
0.859739
-0.0245484
0.854169
-0.0214669
0.848849
-0.0187359
0.84376
-0.0163558
0.838883
-0.0143256
0.834193
-0.0126429
0.829663
-0.0113029
0.825278
-0.0103026
0.820957
-0.00962831
-0.00925351
1.02713
-0.0350612
1.01843
-0.0511377
1.01516
-0.060661
1.01511
-0.0676976
1.01754
-0.073438
1.02173
-0.0780526
1.02693
-0.0819228
1.03263
-0.0854006
1.03857
-0.0886571
1.04456
-0.0917751
1.05046
-0.0948183
1.05619
-0.0978368
1.06169
-0.100863
1.06691
-0.103914
1.07183
-0.106997
1.07641
-0.110115
1.08063
-0.113261
1.08446
-0.116423
1.08789
-0.119583
1.09087
-0.122718
1.09338
-0.125801
1.0954
-0.128798
1.09687
-0.131672
1.09778
-0.134384
1.09807
-0.13689
1.09771
-0.139145
1.09666
-0.141101
1.09487
-0.142713
1.09232
-0.143935
1.08896
-0.144725
1.08478
-0.145044
1.07975
-0.144859
1.07386
-0.144143
1.06712
-0.142878
1.05955
-0.141056
1.05116
-0.138676
1.042
-0.135751
1.03212
-0.1323
1.02158
-0.128355
1.01048
-0.123955
0.998881
-0.119148
0.98689
-0.113988
0.974603
-0.108532
0.962122
-0.102841
0.949547
-0.0969779
0.936976
-0.0910035
0.924503
-0.0849775
0.912214
-0.0789559
0.900185
-0.0729911
0.888484
-0.0671303
0.877169
-0.0614157
0.866286
-0.0558841
0.855869
-0.0505669
0.845944
-0.0454905
0.836525
-0.0406765
0.827618
-0.0361423
0.819219
-0.031901
0.811319
-0.0279628
0.803902
-0.0243347
0.796944
-0.0210213
0.79042
-0.0180251
0.784299
-0.0153469
0.778549
-0.0129864
0.773134
-0.0109418
0.768018
-0.00921002
0.763164
-0.00778872
0.75853
-0.00666853
0.754087
-0.00585973
0.749753
-0.00529356
-0.00517124
1.20743
-0.0313198
1.20163
-0.0453379
1.1963
-0.05533
1.19152
-0.0629134
1.18733
-0.0692514
1.18388
-0.074597
1.1811
-0.0791458
1.17887
-0.0831689
1.17707
-0.0868579
1.17561
-0.0903151
1.1744
-0.093608
1.17335
-0.0967906
1.17239
-0.0999014
1.17144
-0.102963
1.17044
-0.105988
1.1693
-0.108978
1.16797
-0.111928
1.16637
-0.114827
1.16445
-0.117656
1.16212
-0.120391
1.15933
-0.123005
1.15599
-0.125464
1.15206
-0.127734
1.14745
-0.129775
1.14211
-0.131548
1.13598
-0.133013
1.12901
-0.134129
1.12116
-0.134859
1.11239
-0.135167
1.10269
-0.135023
1.09205
-0.134402
1.08048
-0.133285
1.068
-0.131663
1.05465
-0.129532
1.0405
-0.126902
1.02561
-0.123787
1.01007
-0.120214
0.993991
-0.116216
0.977471
-0.111835
0.960633
-0.107118
0.9436
-0.102117
0.926498
-0.0968866
0.909449
-0.091484
0.892571
-0.0859651
0.875976
-0.0803848
0.859766
-0.0747949
0.84403
-0.0692438
0.828847
-0.063775
0.814281
-0.0584277
0.800384
-0.0532354
0.787194
-0.0482271
0.774735
-0.0434266
0.763019
-0.0388533
0.75205
-0.0345223
0.741817
-0.0304454
0.732305
-0.026631
0.723487
-0.0230849
0.715334
-0.0198107
0.707809
-0.0168103
0.700871
-0.014084
0.694477
-0.0116313
0.68858
-0.00945069
0.683133
-0.00754005
0.678087
-0.00589675
0.673394
-0.00451756
0.669006
-0.00340011
0.664872
-0.00253515
0.660954
-0.00193973
0.657178
-0.00151745
-0.0016302
1.21809
-0.0379016
1.22104
-0.0482827
1.22232
-0.0566112
1.2227
-0.0632878
1.22243
-0.0689832
1.22178
-0.0739479
1.22092
-0.0782856
1.2199
-0.0821458
1.21871
-0.0856688
1.21734
-0.0889414
1.21575
-0.0920168
1.21389
-0.0949348
1.21172
-0.0977247
1.20916
-0.100404
1.20615
-0.102981
1.20263
-0.105454
1.19852
-0.107816
1.19375
-0.110057
1.18825
-0.112158
1.18196
-0.114098
1.17481
-0.115853
1.16674
-0.117396
1.15771
-0.118696
1.14766
-0.119724
1.13656
-0.120449
1.1244
-0.120844
1.11115
-0.12088
1.09683
-0.120534
1.08145
-0.119786
1.06505
-0.118623
1.04769
-0.117036
1.02943
-0.115024
1.01036
-0.112593
0.990585
-0.109756
0.970218
-0.106534
0.949388
-0.102955
0.928229
-0.0990543
0.906883
-0.0948704
0.885495
-0.0904471
0.864208
-0.0858309
0.84316
-0.0810696
0.822483
-0.0762111
0.8023
-0.0713017
0.782719
-0.0663858
0.763837
-0.0615043
0.745735
-0.0566945
0.728479
-0.051989
0.712118
-0.0474162
0.696689
-0.0429998
0.682211
-0.0387594
0.668693
-0.0347104
0.65613
-0.0308647
0.644506
-0.0272307
0.633797
-0.0238147
0.623971
-0.02062
0.614987
-0.0176488
0.606803
-0.0149012
0.599368
-0.012377
0.592632
-0.0100745
0.586539
-0.00799217
0.581035
-0.00612769
0.576063
-0.00447894
0.571565
-0.00304336
0.567487
-0.00181883
0.563772
-0.000802196
0.560365
6.65356e-06
0.557215
0.000615578
0.554274
0.00100216
0.551495
0.00126311
0.000974256
1.20321
-0.0483623
1.21061
-0.0556845
1.21603
-0.0620212
1.22008
-0.0673383
1.22301
-0.0719132
1.22498
-0.075917
1.22611
-0.0794131
1.22644
-0.0824749
1.22596
-0.0851898
1.22464
-0.0876257
1.22246
-0.0898274
1.21935
-0.0918274
1.21528
-0.0936509
1.21019
-0.0953153
1.20404
-0.0968298
1.19679
-0.0981974
1.18839
-0.0994158
1.17881
-0.100478
1.16803
-0.101375
1.15602
-0.102091
1.14278
-0.102611
1.12831
-0.102918
1.11261
-0.102991
1.0957
-0.102813
1.07762
-0.102367
1.05841
-0.101636
1.03814
-0.100607
1.01688
-0.0992713
0.994725
-0.0976237
0.971768
-0.0956639
0.948131
-0.0933967
0.923942
-0.0908325
0.899339
-0.0879871
0.874467
-0.0848816
0.849476
-0.0815419
0.82452
-0.0779978
0.79975
-0.0742825
0.775311
-0.0704313
0.751345
-0.0664807
0.727982
-0.0624671
0.705338
-0.0584263
0.683519
-0.054392
0.662612
-0.0503957
0.642691
-0.0464653
0.623812
-0.0426259
0.606015
-0.0388985
0.589326
-0.0353006
0.573755
-0.0318463
0.559301
-0.0285463
0.545949
-0.0254086
0.533676
-0.0224385
0.52245
-0.0196391
0.51223
-0.0170118
0.502971
-0.0145567
0.494623
-0.0122728
0.487132
-0.0101584
0.480442
-0.00821142
0.474494
-0.00642956
0.469229
-0.00481043
0.464588
-0.00335172
0.460511
-0.00205128
0.456938
-0.000906802
0.453811
8.35977e-05
0.451071
0.000920408
0.448665
0.00160358
0.446541
0.00213241
0.444647
0.00251005
0.442933
0.00271836
0.441372
0.00282574
0.00245531
1.2036
-0.0599301
1.21218
-0.0642648
1.21828
-0.0681235
1.22231
-0.0713673
1.22447
-0.0740665
1.22486
-0.0763094
1.22359
-0.0781391
1.22071
-0.0795981
1.21627
-0.0807445
1.21028
-0.0816347
1.20276
-0.082312
1.19375
-0.0828092
1.18325
-0.0831519
1.1713
-0.08336
1.15791
-0.0834462
1.14314
-0.0834181
1.127
-0.0832778
1.10955
-0.0830241
1.09083
-0.0826518
1.07089
-0.0821537
1.0498
-0.0815203
1.02763
-0.0807412
1.00445
-0.0798059
0.980341
-0.0787042
0.955405
-0.0774277
0.929743
-0.0759697
0.903466
-0.0743263
0.876694
-0.0724966
0.849557
-0.0704831
0.822188
-0.0682918
0.794727
-0.0659324
0.767315
-0.0634179
0.740096
-0.060765
0.713209
-0.0579924
0.686791
-0.0551221
0.660972
-0.0521768
0.635871
-0.0491808
0.611599
-0.0461579
0.588252
-0.0431322
0.565911
-0.0401256
0.544645
-0.0371595
0.524505
-0.0342519
0.505529
-0.0314196
0.48774
-0.028676
0.471147
-0.0260325
0.455746
-0.0234976
0.441523
-0.021078
0.428454
-0.0187776
0.416507
-0.0165994
0.405642
-0.014544
0.395815
-0.0126116
0.386976
-0.0108005
0.379073
-0.00910942
0.372052
-0.00753562
0.365856
-0.0060771
0.360428
-0.00473077
0.355711
-0.00349478
0.351647
-0.00236624
0.34818
-0.00134381
0.345252
-0.000424754
0.342809
0.000391523
0.340796
0.00110569
0.339162
0.00171739
0.337854
0.00222746
0.336823
0.00263531
0.336018
0.00293848
0.335392
0.00313738
0.334897
0.00321579
0.334516
0.00320852
0.0028668
1.21029
-0.0664672
1.21288
-0.0668532
1.212
-0.0672403
1.2081
-0.0674678
1.20153
-0.0674965
1.19256
-0.0673381
1.18142
-0.0670027
1.16833
-0.0665031
1.15345
-0.0658667
1.13695
-0.0651258
1.11894
-0.0643084
1.09957
-0.0634348
1.07894
-0.0625207
1.05716
-0.0615768
1.03433
-0.0606101
1.01053
-0.0596228
0.985872
-0.0586141
0.960431
-0.0575801
0.934297
-0.0565153
0.907559
-0.0554123
0.880305
-0.0542633
0.852627
-0.05306
0.824619
-0.0517949
0.79638
-0.0504614
0.76801
-0.0490544
0.739614
-0.0475708
0.711301
-0.0460095
0.68318
-0.0443719
0.655361
-0.0426612
0.627956
-0.0408833
0.601072
-0.0390455
0.574814
-0.0371576
0.549282
-0.03523
0.524567
-0.0332755
0.500753
-0.0313059
0.477913
-0.0293351
0.456109
-0.0273751
0.435391
-0.0254389
0.415798
-0.0235372
0.397354
-0.021681
0.380075
-0.0198784
0.363961
-0.0181376
0.349006
-0.0164638
0.335193
-0.0148622
0.322497
-0.0133352
0.310885
-0.0118854
0.30032
-0.0105127
0.290761
-0.00921792
0.282162
-0.00799922
0.274474
-0.00685609
0.267649
-0.00578572
0.261635
-0.00478697
0.256383
-0.00385669
0.251841
-0.00299365
0.247959
-0.00219476
0.244687
-0.00145912
0.241976
-0.000784041
0.239778
-0.000168946
0.238046
0.000388105
0.236735
0.000886063
0.2358
0.00132659
0.235196
0.00170887
0.234879
0.00203364
0.234807
0.00229936
0.234937
0.00250577
0.235227
0.00264991
0.235636
0.00273041
0.236119
0.00273579
0.236651
0.00267893
0.00246532
1.15049
-0.0543587
1.13493
-0.0512949
1.11659
-0.0488993
1.09604
-0.0469118
1.07372
-0.0451737
1.04998
-0.0435994
1.02511
-0.0421343
0.999356
-0.0407427
0.9729
-0.0394082
0.945904
-0.0381275
0.918499
-0.0369008
0.890794
-0.0357275
0.862882
-0.0346057
0.834841
-0.0335331
0.806739
-0.0325057
0.778638
-0.0315184
0.750592
-0.0305649
0.722653
-0.0296382
0.694873
-0.0287308
0.6673
-0.0278356
0.639986
-0.0269451
0.612983
-0.0260532
0.586346
-0.025154
0.560132
-0.0242434
0.5344
-0.0233181
0.509209
-0.0223764
0.484622
-0.021418
0.460697
-0.0204436
0.437494
-0.0194554
0.415071
-0.0184559
0.393477
-0.0174494
0.372762
-0.0164398
0.352967
-0.0154324
0.334126
-0.0144319
0.316265
-0.0134439
0.299406
-0.0124729
0.283556
-0.0115242
0.268721
-0.0106014
0.254894
-0.00970903
0.242064
-0.00884924
0.230212
-0.00802532
0.219314
-0.00723817
0.209341
-0.00648974
0.200261
-0.00577973
0.192036
-0.00510899
0.184628
-0.00447626
0.177998
-0.0038816
0.172105
-0.00332314
0.166907
-0.00280046
0.162364
-0.00231138
0.158434
-0.00185532
0.155079
-0.00143007
0.152258
-0.00103513
0.149934
-0.000668459
0.148069
-0.000329783
0.146627
-1.71901e-05
0.145574
0.000268906
0.144875
0.000529692
0.144498
0.000764688
0.144409
0.000974916
0.144575
0.00115926
0.144966
0.00131847
0.145547
0.00145132
0.146288
0.0015579
0.147157
0.00163684
0.148122
0.00168691
0.149149
0.00170743
0.150198
0.00169112
0.151225
0.00165453
0.00162147
0.880984
-0.0214841
0.848713
-0.0190219
0.817087
-0.0172717
0.78614
-0.0159617
0.755892
-0.0149243
0.726358
-0.0140632
0.697545
-0.0133191
0.669459
-0.0126542
0.6421
-0.0120469
0.615462
-0.0114868
0.589532
-0.010968
0.564293
-0.0104859
0.539726
-0.0100363
0.515812
-0.00961557
0.492529
-0.00922025
0.469861
-0.00884696
0.447792
-0.00849229
0.42631
-0.00815291
0.405409
-0.00782568
0.385085
-0.0075077
0.36534
-0.00719636
0.346181
-0.00688948
0.327616
-0.00658528
0.309659
-0.00628256
0.292325
-0.00598052
0.275631
-0.00567894
0.259594
-0.00537787
0.244232
-0.00507782
0.229559
-0.00477936
0.215589
-0.00448349
0.202334
-0.00419109
0.189799
-0.00390339
0.177991
-0.00362138
0.166907
-0.00334634
0.156544
-0.00307918
0.146894
-0.00282107
0.137944
-0.00257265
0.129679
-0.0023348
0.122079
-0.00210784
0.115124
-0.00189229
0.108788
-0.00168811
0.103047
-0.00149549
0.0978731
-0.00131406
0.0932386
-0.00114378
0.0891154
-0.00098406
0.0854752
-0.000834674
0.0822903
-0.000694899
0.0795329
-0.00056445
0.0771766
-0.000442554
0.0751954
-0.000328935
0.0735643
-0.000222852
0.0722593
-0.000124095
0.0712572
-3.20043e-05
0.0705358
5.34848e-05
0.0700737
0.000132848
0.0698504
0.000206074
0.0698458
0.000273583
0.07004
0.000335072
0.0704137
0.000390771
0.0709477
0.000440311
0.0716228
0.000483748
0.0724196
0.000520727
0.0733192
0.000551254
0.0743021
0.000574901
0.0753481
0.000591643
0.0764359
0.00060136
0.0775433
0.000604077
0.0786438
0.000595086
0.0796978
0.000603378
0.000720749
0.335376
0.316355
0.299084
0.283123
0.268199
0.254136
0.240818
0.228164
0.216118
0.204632
0.193664
0.183179
0.173143
0.163528
0.154309
0.145463
0.136971
0.128819
0.120994
0.113487
0.106292
0.0994029
0.0928184
0.0865365
0.0805566
0.0748783
0.069501
0.0644237
0.0596448
0.0551618
0.0509711
0.047068
0.043447
0.0401009
0.037022
0.0342012
0.0316288
0.0292942
0.0271867
0.0252946
0.0236068
0.0221115
0.0207977
0.0196541
0.0186703
0.0178359
0.0171412
0.016577
0.0161346
0.0158059
0.0155832
0.0154592
0.0154274
0.0154809
0.0156138
0.0158199
0.0160935
0.0164285
0.0168192
0.0172595
0.0177432
0.0182638
0.018815
0.0193899
0.0199818
0.0205836
0.0211883
0.021784
0.0223876
)
;

boundaryField
{
    inlet
    {
        type            calculated;
        value           nonuniform List<scalar> 10(-1 -1 -1 -1 -1 -1 -1 -1 -1 -1);
    }
    outlet
    {
        type            calculated;
        value           nonuniform List<scalar> 
20
(
0.0909373
0.247254
0.385933
0.511213
0.62443
0.722871