/*--------------------------------*- C++ -*----------------------------------*\
| =========                 |                                                 |
| \\      /  F ield         | OpenFOAM: The Open Source CFD Toolbox           |
|  \\    /   O peration     | Version:  2406                                  |
|   \\  /    A nd           | Website:  www.openfoam.com                      |
|    \\/     M anipulation  |                                                 |
\*---------------------------------------------------------------------------*/
FoamFile
{
    version     2.0;
    format      ascii;
    arch        "LSB;label=32;scalar=64";
    class       surfaceScalarField;
    location    "50";
    object      phi;
}
// * * * * * * * * * * * * * * * * * * * * * * * * * * * * * * * * * * * * * //

dimensions      [0 3 -1 0 0 0 0];

oriented        oriented;

internalField   nonuniform List<scalar> 
299000
(
0.0796649
0.0203351
0.0586811
0.0209838
0.0442592
0.0144219
0.0348087
0.00945045
0.0285094
0.00629925
0.0242023
0.00430708
0.0211537
0.00304847
0.0189075
0.00224617
0.0171871
0.00172037
0.0158246
0.00136244
0.0147156
0.00110897
0.0137927
0.000922831
0.0130109
0.000781728
0.012339
0.000671854
0.0117546
0.000584332
0.0112413
0.000513269
0.0107866
0.000454632
0.010381
0.000405584
0.0100169
0.000364071
0.00968825
0.000328574
0.00939025
0.000297945
0.0091189
0.0002713
0.0088709
0.000247954
0.00864348
0.000227363
0.00843434
0.000209093
0.0082415
0.000192793
0.00806327
0.000178178
0.00789821
0.000165011
0.00774506
0.000153098
0.00760274
0.000142274
0.00747029
0.000132403
0.00734687
0.000123368
0.00723176
0.00011507
0.00712428
0.000107423
0.00702388
0.000100355
0.00693003
9.3802e-05
0.00684228
8.77093e-05
0.0067602
8.20274e-05
0.00668344
7.67156e-05
0.00661165
7.17347e-05
0.00654455
6.70535e-05
0.00648186
6.26405e-05
0.00642334
5.84715e-05
0.00636878
5.45208e-05
0.00631796
5.07693e-05
0.00627071
4.71955e-05
0.00622688
4.37843e-05
0.00618632
4.05173e-05
0.00614889
3.73824e-05
0.00611447
3.43636e-05
0.00608298
3.14509e-05
0.0060543
2.86302e-05
0.00602836
2.5893e-05
0.00600508
2.32265e-05
0.00598441
2.06236e-05
0.00596629
1.80721e-05
0.00595067
1.5566e-05
0.00593753
1.30936e-05
0.00592683
1.06493e-05
0.00591856
8.2217e-06
0.0059127
5.80567e-06
0.00590926
3.38969e-06
0.00590824
9.68776e-07
0.00590965
-1.46913e-06
0.00591353
-3.92965e-06
0.0059199
-6.42602e-06
0.00592881
-8.96465e-06
0.00594031
-1.15602e-05
0.00595448
-1.42201e-05
0.00597138
-1.69609e-05
0.00599112
-1.97918e-05
0.00601379
-2.27318e-05
0.00603952
-2.57926e-05
0.00606846
-2.89969e-05
0.00610076
-3.23601e-05
0.00613661
-3.59101e-05
0.00617621
-3.96681e-05
0.00621982
-4.36696e-05
0.00626769
-4.79443e-05
0.00632016
-5.25393e-05
0.00637757
-5.74977e-05
0.00644037
-6.28845e-05
0.00650903
-6.87647e-05
0.00658414
-7.5233e-05
0.0066664
-8.23921e-05
0.00675664
-9.03893e-05
0.00685588
-9.94008e-05
0.00696539
-0.000109679
0.00708679
-0.000121564
0.00722221
-0.000135568
0.00737458
-0.000152483
0.00754813
-0.000173644
0.00774947
-0.000201442
0.0079897
-0.000240437
0.00828924
-0.000299819
0.0086881
-0.000398985
0.00926619
-0.000578198
0.0101886
-0.00092176
0.0118735
-0.00168476
-0.00384354
0.0157164
0.105209
0.015126
0.100192
0.0260006
0.0902009
0.0244129
0.0797643
0.0198869
0.0705888
0.0154746
0.0630144
0.0118813
0.05688
0.00918273
0.0519083
0.00721774
0.047841
0.00578756
0.0444704
0.00473289
0.0416387
0.0039405
0.0392286
0.0033328
0.0371529
0.00285728
0.0353465
0.00247819
0.0337598
0.00217085
0.032355
0.00191794
0.0311025
0.00170704
0.0299788
0.00152913
0.0289653
0.0013775
0.0280466
0.00124707
0.0272105
0.00113395
0.0264466
0.00103511
0.0257462
0.000948174
0.0251022
0.000871231
0.0245084
0.00080275
0.0239596
0.000741484
0.0234513
0.00068641
0.0229795
0.000636682
0.0225408
0.000591592
0.0221324
0.00055055
0.0217517
0.000513052
0.0213962
0.000478675
0.0210641
0.000447055
0.0207535
0.000417878
0.0204629
0.000390874
0.0201908
0.000365809
0.0199359
0.000342478
0.0196971
0.000320702
0.0194733
0.000300322
0.0192638
0.0002812
0.0190675
0.000263212
0.0188837
0.000246248
0.0187119
0.000230209
0.0185513
0.000215006
0.0184013
0.000200559
0.0182616
0.000186798
0.0181316
0.000173653
0.0180109
0.000161068
0.0178992
0.000148986
0.0177961
0.000137356
0.0177013
0.00012613
0.0176145
0.000115266
0.0175356
0.000104722
0.0174642
9.44588e-05
0.0174003
8.44393e-05
0.0173436
7.46295e-05
0.017294
6.49939e-05
0.0172515
5.55014e-05
0.0172159
4.61184e-05
0.0171872
3.6815e-05
0.0171653
2.75586e-05
0.0171502
1.83197e-05
0.017142
9.06535e-06
0.0171406
-2.34361e-07
0.0171461
-9.6145e-06
0.0171587
-1.91084e-05
0.0171783
-2.87552e-05
0.0172052
-3.8592e-05
0.0172395
-4.86628e-05
0.0172814
-5.90101e-05
0.0173311
-6.96847e-05
0.017389
-8.0737e-05
0.0174553
-9.22276e-05
0.0175303
-0.000104219
0.0176146
-0.000116785
0.0177085
-0.000130006
0.0178127
-0.000143977
0.0179276
-0.000158803
0.0180541
-0.000174611
0.0181929
-0.000191543
0.0183449
-0.000209775
0.0185113
-0.000229508
0.0186932
-0.000250997
0.0188922
-0.000274542
0.01911
-0.000300529
0.0193486
-0.000329436
0.0196107
-0.000361896
0.0198993
-0.00039874
0.0202184
-0.000441127
0.0205732
-0.000490708
0.0209704
-0.000549967
0.0214194
-0.000622817
0.0219332
-0.000715701
0.0225319
-0.00083972
0.0232462
-0.00101476
0.024124
-0.00127722
0.0252402
-0.0016937
0.0267083
-0.0023888
0.0286401
-0.00361608
-0.00580033
0.0305952
0.105143
0.00998281
0.108944
0.0221996
0.107717
0.0256404
0.10304
0.0245632
0.0968112
0.0217034
0.0902653
0.0184272
0.0840513
0.0153966
0.0784314
0.0128376
0.0734605
0.0107584
0.0691012
0.00909208
0.0652829
0.00775868
0.0619296
0.0066859
0.0589717
0.00581514
0.0563487
0.00510103
0.0540103
0.00450914
0.0519147
0.00401344
0.0500274
0.00359422
0.04832
0.00323645
0.0467688
0.00292855
0.0453542
0.00266154
0.0440597
0.00242835
0.0428713
0.00222338
0.0417772
0.00204212
0.0407673
0.00188096
0.039833
0.00173693
0.0389668
0.00160761
0.0381621
0.00149097
0.0374133
0.00138533
0.0367155
0.0012893
0.0360643
0.00120166
0.0354558
0.00112142
0.0348866
0.00104771
0.0343538
0.000979779
0.0338545
0.00091699
0.0333865
0.000858786
0.0329475
0.000804682
0.0325356
0.000754255
0.0321491
0.00070713
0.0317863
0.00066298
0.0314459
0.000621511
0.0311265
0.000582465
0.030827
0.000545609
0.0305464
0.000510737
0.0302836
0.000477661
0.0300378
0.000446213
0.0298082
0.000416238
0.0295942
0.000387599
0.029395
0.000360166
0.02921
0.000333822
0.0290388
0.00030846
0.0288808
0.000283978
0.0287356
0.000260283
0.028603
0.000237288
0.0284824
0.000214908
0.0283736
0.000193066
0.0282764
0.000171685
0.0281906
0.000150695
0.028116
0.000130025
0.0280523
0.000109607
0.0279996
8.93738e-05
0.0279578
6.92596e-05
0.0279268
4.91978e-05
0.0279066
2.91227e-05
0.0278973
8.96614e-06
0.0278988
-1.13407e-05
0.0279115
-3.18723e-05
0.0279353
-5.27058e-05
0.0279704
-7.39239e-05
0.0280172
-9.56128e-05
0.0280759
-0.000117867
0.0281469
-0.000140784
0.0282305
-0.000164477
0.0283271
-0.000189062
0.0284374
-0.000214674
0.0285619
-0.00024146
0.0287013
-0.000269587
0.0288564
-0.000299245
0.0290281
-0.00033065
0.0292173
-0.000364053
0.0294253
-0.000399747
0.0296534
-0.000438077
0.0299031
-0.000479454
0.0301761
-0.000524374
0.0304747
-0.000573441
0.0308012
-0.000627405
0.0311586
-0.000687212
0.0315503
-0.000754074
0.0319807
-0.000829591
0.0324551
-0.000915922
0.0329801
-0.00101608
0.0335642
-0.00113439
0.0342185
-0.00127734
0.0349573
-0.00145488
0.0357998
-0.00168279
0.0367712
-0.00198658
0.0379019
-0.00240798
0.0392231
-0.00301424
0.0407452
-0.00391004
0.0423755
-0.0052465
-0.00715795
0.0437317
0.103313
0.00666977
0.108505
0.0170078
0.111582
0.0225626
0.111787
0.0243583
0.109681
0.0238093
0.106101
0.0220077
0.10178
0.0197168
0.0972309
0.0173868
0.0927563
0.0152328
0.0885152
0.0133331
0.0845768
0.011697
0.0809594
0.0103032
0.0776545
0.00911995
0.0746411
0.00811424
0.0718938
0.00725639
0.0693861
0.00652104
0.067093
0.00588714
0.0649919
0.0053375
0.0630622
0.00485813
0.0612859
0.00443769
0.0596472
0.00406692
0.0581322
0.00373826
0.0567288
0.0034455
0.0554261
0.0031835
0.0542149
0.00294803
0.0530869
0.00273551
0.0520348
0.00254296
0.0510521
0.00236788
0.0501332
0.00220811
0.0492729
0.00206183
0.0484667
0.00192749
0.0477106
0.00180372
0.0470009
0.00168938
0.0463343
0.00158345
0.0457079
0.00148504
0.0451191
0.00139339
0.0445654
0.00130781
0.0440447
0.0012277
0.0435551
0.00115253
0.0430946
0.00108183
0.0426618
0.00101517
0.0422551
0.000952184
0.0418732
0.00089252
0.0415149
0.000835875
0.041179
0.000781971
0.0408646
0.000730553
0.0405707
0.000681392
0.0402964
0.000634274
0.0400411
0.000589006
0.0398041
0.000545406
0.0395846
0.000503307
0.0393822
0.000462553
0.0391964
0.000422995
0.0390267
0.000384496
0.0388727
0.000346924
0.0387341
0.000310152
0.0386106
0.000274061
0.038502
0.000238532
0.038408
0.000203451
0.0383285
0.000168706
0.0382635
0.000134187
0.0382128
9.97828e-05
0.0381764
6.53819e-05
0.0381543
3.08721e-05
0.0381467
-3.86234e-06
0.0381536
-3.89425e-05
0.0381752
-7.44973e-05
0.0382118
-0.000110662
0.0382636
-0.000147579
0.038331
-0.000185401
0.0384144
-0.000224292
0.0385142
-0.000264431
0.0386309
-0.000306011
0.0387653
-0.000349248
0.0389181
-0.000394379
0.03909
-0.000441674
0.039282
-0.000491434
0.0394952
-0.000544005
0.0397307
-0.000599787
0.03999
-0.000659239
0.0402745
-0.000722906
0.0405862
-0.00079143
0.0409271
-0.000865579
0.0412996
-0.000946288
0.0417066
-0.0010347
0.0421512
-0.00113225
0.0426374
-0.00124075
0.0431699
-0.00136255
0.0437543
-0.00150074
0.0443974
-0.0016595
0.0451074
-0.00184463
0.0458941
-0.00206434
0.0467694
-0.00233051
0.0477468
-0.00266058
0.0488401
-0.00308032
0.0500597
-0.00362756
0.0514022
-0.00435601
0.0528289
-0.00533593
0.0542243
-0.00664202
-0.00829949
0.0553646
0.102078
0.0045916
0.10635
0.0127353
0.110425
0.0184877
0.113059
0.0217243
0.113933
0.0229348
0.113229
0.0227123
0.111338
0.0216074
0.108673
0.0200515
0.105573
0.0183333
0.102281
0.0166244
0.0989623
0.0150159
0.0957172
0.0135483
0.0926044
0.0122326
0.0896541
0.0110645
0.0868784
0.0100319
0.0842788
0.00912056
0.0818503
0.00831554
0.0795845
0.00760311
0.0774716
0.00697093
0.075501
0.00640819
0.0736623
0.00590557
0.0719453
0.00545507
0.0703409
0.00504988
0.0688401
0.00468418
0.067435
0.004353
0.0661183
0.0040521
0.0648833
0.00377783
0.063724
0.00352709
0.0626348
0.00329716
0.0616108
0.00308571
0.0606475
0.00289074
0.0597406
0.00271046
0.0588865
0.00254334
0.0580818
0.00238804
0.0573234
0.00224337
0.0566084
0.00210827
0.0559343
0.00198182
0.0552987
0.0018632
0.0546994
0.00175167
0.0541345
0.00164657
0.0536023
0.00154731
0.053101
0.00145337
0.0526292
0.00136425
0.0521854
0.00127953
0.0517684
0.00119882
0.0513771
0.00112174
0.0510104
0.00104797
0.0506674
0.00097721
0.0503471
0.000909173
0.0500488
0.000843601
0.0497717
0.000780251
0.0495152
0.000718897
0.0492788
0.000659324
0.0490618
0.000601331
0.0488639
0.000544726
0.0486846
0.000489326
0.0485236
0.000434954
0.0483805
0.000381439
0.0482552
0.000328614
0.0481475
0.000276315
0.0480572
0.00022438
0.0479842
0.000172647
0.0479285
0.000120956
0.0478901
6.91396e-05
0.047869
1.70315e-05
0.0478655
-3.55435e-05
0.0478796
-8.87704e-05
0.0479116
-0.000142844
0.0479619
-0.000197971
0.0480307
-0.00025437
0.0481185
-0.000312275
0.0482258
-0.000371939
0.0483533
-0.00043364
0.0485016
-0.00049768
0.0486714
-0.000564396
0.0488637
-0.000634163
0.0490795
-0.000707406
0.0493199
-0.000784604
0.0495862
-0.000866309
0.0498799
-0.000953155
0.0502026
-0.00104589
0.0505563
-0.00114537
0.0509431
-0.00125265
0.0513654
-0.00136897
0.0518262
-0.00149584
0.0523287
-0.00163514
0.0528767
-0.00178918
0.0534746
-0.00196091
0.0541276
-0.00215415
0.0548416
-0.00237385
0.0556234
-0.00262664
0.0564803
-0.00292147
0.05742
-0.00327051
0.0584495
-0.00369043
0.0595729
-0.00420391
0.0607866
-0.00484111
0.062071
-0.00563989
0.0633774
-0.00664185
0.0646141
-0.00787882
-0.00933896
0.0656527
0.101293
0.0032988
0.104407
0.00962061
0.10811
0.014785
0.111416
0.018418
0.11377
0.0205808
0.114974
0.0215085
0.11508
0.0215007
0.114276
0.020856
0.112785
0.019824
0.110819
0.0185905
0.108552
0.0172828
0.106118
0.0159819
0.103615
0.0147355
0.101111
0.0135685
0.0986511
0.0124917
0.0962648
0.0115067
0.0939699
0.0106104
0.0917759
0.00979701
0.0896871
0.00905961
0.0877042
0.00839102
0.0858253
0.00778427
0.0840475
0.00723285
0.0823664
0.00673081
0.0807777
0.00627281
0.0792765
0.00585408
0.0778581
0.00547038
0.0765178
0.00511799
0.0752512
0.00479359
0.074054
0.00449428
0.0729221
0.00421749
0.0718518
0.00396094
0.0708395
0.00372263
0.069882
0.00350078
0.0689761
0.0032938
0.0681191
0.00310029
0.0673082
0.00291899
0.0665412
0.00274878
0.0658156
0.00258866
0.0651294
0.00243771
0.0644808
0.00229513
0.0638678
0.00216017
0.0632889
0.00203217
0.0627425
0.00191053
0.0622272
0.00179468
0.0617418
0.00168413
0.061285
0.00157841
0.0608558
0.0014771
0.060453
0.0013798
0.060076
0.00128614
0.0597237
0.00119579
0.0593954
0.00110843
0.0590904
0.00102375
0.0588081
0.000941491
0.0585479
0.000861371
0.0583094
0.000783139
0.058092
0.000706553
0.0578955
0.000631377
0.0577194
0.000557384
0.0575636
0.000484351
0.0574277
0.00041206
0.0573116
0.000340295
0.0572153
0.000268841
0.0571386
0.00019748
0.0570816
0.000125993
0.0570444
5.41571e-05
0.0570269
-1.82602e-05
0.0570295
-9.15021e-05
0.0570524
-0.000165827
0.0570957
-0.000241505
0.05716
-0.000318824
0.0572457
-0.000398093
0.0573532
-0.000479641
0.0574832
-0.000563828
0.0576364
-0.000651049
0.0578136
-0.000741736
0.0580156
-0.000836374
0.0582436
-0.000935503
0.0584985
-0.00103974
0.0587817
-0.00114977
0.0590948
-0.0012664
0.0594392
-0.00139055
0.0598169
-0.00152331
0.0602299
-0.00166594
0.0606805
-0.00181997
0.0611715
-0.00198719
0.0617058
-0.00216983
0.0622869
-0.00237058
0.0629183
-0.0025928
0.0636045
-0.00284069
0.06435
-0.0031196
0.0651594
-0.00343635
0.0660375
-0.00379976
0.066988
-0.00422118
0.0680125
-0.00471517
0.0691085
-0.00530003
0.0702654
-0.00599787
0.0714593
-0.0068333
0.0726467
-0.00782887
0.0737625
-0.00899467
-0.0103099
0.0747327
0.100819
0.0024797
0.103018
0.00742185
0.105992
0.0118105
0.109109
0.0153014
0.111881
0.017808
0.114008
0.0193816
0.115359
0.0201493
0.115939
0.0202767
0.115829
0.0199332
0.115152
0.0192682
0.114032
0.0184023
0.112587
0.0174267
0.110916
0.0164063
0.109099
0.0153855
0.107198
0.0143924
0.105261
0.0134442
0.103321
0.01255
0.101404
0.0117136
0.0995281
0.0109356
0.0977046
0.0102145
0.0959414
0.00954732
0.0942434
0.00893076
0.092613
0.00836108
0.0910512
0.00783456
0.0895576
0.00734756
0.0881312
0.00689666
0.0867704
0.00647869
0.0854732
0.00609068
0.0842375
0.00572996
0.0830608
0.00539407
0.0819408
0.00508079
0.0808752
0.00478812
0.0798617
0.00451422
0.0788979
0.00425746
0.0779818
0.00401633
0.0771111
0.0037895
0.0762841
0.00357574
0.0754987
0.00337394
0.0747532
0.00318309
0.0740459
0.00300228
0.0733753
0.00283066
0.0727399
0.00266748
0.0721383
0.00251202
0.0715692
0.00236365
0.0710315
0.00222177
0.0705239
0.00208584
0.0700455
0.00195535
0.0695954
0.00182983
0.0691726
0.00170884
0.0687763
0.00159197
0.0684058
0.00147883
0.0680603
0.00136907
0.0677394
0.00126233
0.0674423
0.00115829
0.0671687
0.00105664
0.0669181
0.000957075
0.06669
0.000859306
0.0664842
0.000763051
0.0663004
0.000668033
0.0661383
0.00057398
0.0659979
0.000480621
0.0658789
0.000387688
0.0657813
0.00029491
0.0657052
0.000202013
0.0656505
0.000108716
0.0656173
1.4733e-05
0.0656059
-8.02397e-05
0.0656165
-0.00017652
0.0656493
-0.000274445
0.0657046
-0.00037437
0.0657831
-0.000476672
0.065885
-0.000581758
0.0660111
-0.000690069
0.066162
-0.000802083
0.0663384
-0.000918328
0.0665412
-0.00103939
0.0667715
-0.00116591
0.0670302
-0.00129863
0.0673185
-0.00143836
0.067638
-0.00158606
0.06799
-0.00174281
0.0683763
-0.00190984
0.0687987
-0.00208864
0.0692594
-0.0022809
0.0697605
-0.00248867
0.0703047
-0.00271438
0.0708947
-0.00296094
0.0715334
-0.0032319
0.072224
-0.00353161
0.0729696
-0.0038654
0.0737729
-0.00423984
0.074636
-0.00466305
0.0755596
-0.00514495
0.0765418
-0.00569747
0.0775763
-0.00633456
0.0786502
-0.00707156
0.0797407
-0.00792354
0.0808135
-0.00890139
0.081824
-0.0100053
-0.011215
0.0827287
0.100541
0.00193837
0.102095
0.00586825
0.104374
0.00953123
0.107006
0.0126697
0.109644
0.0151693
0.112018
0.0170072
0.113949
0.0182188
0.115346
0.0188795
0.116193
0.0190858
0.116524
0.0189374
0.1164
0.0185266
0.115894
0.0179327
0.11508
0.0172196
0.114028
0.0164371
0.112799
0.0156222
0.111441
0.0148012
0.109999
0.0139927
0.108503
0.0132087
0.106982
0.0124568
0.105455
0.0117414
0.103938
0.0110644
0.102442
0.0104262
0.100977
0.00982624
0.0995483
0.00926308
0.0981608
0.008735
0.0968173
0.00824005
0.0955197
0.00777614
0.0942691
0.00734119
0.0930658
0.00693317
0.0919096
0.00655012
0.0908002
0.00619018
0.0897366
0.0058516
0.0887179
0.00553276
0.0877432
0.00523213
0.0868111
0.00494832
0.0859205
0.00468002
0.0850701
0.00442603
0.0842587
0.00418524
0.083485
0.00395663
0.0827479
0.00373926
0.0820462
0.00353226
0.0813788
0.0033348
0.0807445
0.00314616
0.0801425
0.00296563
0.0795715
0.00279257
0.0790309
0.00262638
0.0785196
0.0024665
0.078037
0.0023124
0.0775821
0.00216359
0.0771543
0.00201962
0.076753
0.00188003
0.0763776
0.00174442
0.0760274
0.00161239
0.075702
0.00148356
0.0754009
0.00135757
0.0751238
0.00123407
0.0748703
0.00111271
0.0746401
0.000993176
0.0744328
0.00087513
0.0742484
0.000758254
0.0740867
0.000642229
0.0739475
0.000526735
0.0738308
0.000411452
0.0737366
0.000296055
0.073665
0.000180209
0.073616
6.35742e-05
0.0735899
-5.42077e-05
0.0735867
-0.000173513
0.0736068
-0.000294737
0.0736506
-0.000418299
0.0737184
-0.000544644
0.0738108
-0.000674248
0.0739282
-0.000807622
0.0740712
-0.000945327
0.0742407
-0.00108797
0.0744374
-0.00123623
0.0746621
-0.00139084
0.074916
-0.00155263
0.0752
-0.00172255
0.0755153
-0.00190165
0.0758635
-0.00209114
0.0762458
-0.00229238
0.0766639
-0.00250699
0.0771195
-0.0027368
0.0776145
-0.00298397
0.0781508
-0.00325106
0.0787306
-0.00354105
0.0793559
-0.00385751
0.0800287
-0.00420468
0.0807507
-0.00458762
0.0815231
-0.00501236
0.0823459
-0.005486
0.0832177
-0.00601682
0.0841344
-0.00661421
0.0850882
-0.00728836
0.0860663
-0.00804946
0.0870492
-0.00890615
0.0880108
-0.0098628
0.088921
-0.0109154
-0.0120473
0.0897529
0.100375
0.00156356
0.101491
0.00475198
0.103215
0.00780739
0.105335
0.0105498
0.107626
0.0128777
0.109886
0.0147474
0.11195
0.0161538
0.113707
0.017123
0.115091
0.0177019
0.116079
0.0179488
0.116681
0.0179247
0.116926
0.0176881
0.116853
0.0172917
0.11651
0.0167802
0.115942
0.0161906
0.115191
0.0155522
0.114296
0.0148875
0.11329
0.0142138
0.112204
0.0135436
0.111059
0.0128857
0.109877
0.0122465
0.108673
0.0116298
0.107461
0.0110382
0.106251
0.0104729
0.105052
0.0099343
0.10387
0.00942228
0.10271
0.0089362
0.101576
0.0084752
0.10047
0.00803818
0.0993964
0.00762399
0.0983551
0.0072314
0.0973474
0.00685916
0.096374
0.00650606
0.0954352
0.00617088
0.0945309
0.00585249
0.0936611
0.00554976
0.0928253
0.00526167
0.0920233
0.0049872
0.0912544
0.00472542
0.0905181
0.00447545
0.0898138
0.00423645
0.0891408
0.00400764
0.0884986
0.00378829
0.0878864
0.0035777
0.0873037
0.00337522
0.0867497
0.00318024
0.0862239
0.00299218
0.0857257
0.00281049
0.0852545
0.00263465
0.0848098
0.00246417
0.0843912
0.00229858
0.0839981
0.00213743
0.08363
0.00198029
0.0832867
0.00182675
0.0829678
0.00167641
0.0826728
0.00152887
0.0824017
0.00138377
0.082154
0.00124072
0.0819296
0.00109937
0.0817284
0.000959345
0.0815502
0.000820292
0.081395
0.000681848
0.0812626
0.000543647
0.0811532
0.000405318
0.0810668
0.000266483
0.0810035
0.000126752
0.0809635
-1.42837e-05
0.0809468
-0.00015705
0.080954
-0.000301998
0.0809851
-0.000449601
0.0810407
-0.000600362
0.0811211
-0.000754818
0.0812269
-0.000913546
0.0813586
-0.00107717
0.0815168
-0.00124637
0.0817023
-0.0014219
0.0819159
-0.00160457
0.0821584
-0.00179529
0.0824307
-0.0019951
0.082734
-0.00220512
0.0830693
-0.00242665
0.0834379
-0.00266115
0.0838409
-0.0029103
0.0842799
-0.003176
0.0847561
-0.00346048
0.0852711
-0.00376627
0.0858261
-0.00409634
0.0864224
-0.00445412
0.0870611
-0.00484359
0.0877427
-0.00526938
0.088467
-0.0057368
0.0892328
-0.00625185
0.0900372
-0.00682124
0.0908751
-0.00745209
0.0917384
-0.00815162
0.0926154
-0.00892634
0.0934903
-0.00978083
0.0943436
-0.0107159
0.0951544
-0.0117263
-0.0127987
0.0959056
0.100271
0.00129289
0.101092
0.00393061
0.102401
0.00649794
0.10408
0.00887115
0.105987
0.0109704
0.107983
0.0127517
0.10994
0.0141961
0.111757
0.0153065
0.113357
0.0161018
0.114693
0.0166123
0.115743
0.0168746
0.116504
0.0169272
0.116987
0.0168082
0.117214
0.016553
0.117212
0.0161929
0.117009
0.0157549
0.116635
0.0152617
0.116117
0.0147316
0.115481
0.0141794
0.11475
0.0136166
0.113944
0.0130522
0.113081
0.0124929
0.112176
0.0119435
0.111241
0.0114077
0.110287
0.0108879
0.109324
0.0103856
0.108358
0.00990176
0.107396
0.00943681
0.106444
0.0089908
0.105504
0.00856347
0.104581
0.00815441
0.103677
0.00776303
0.102794
0.00738866
0.101934
0.00703057
0.101099
0.00668799
0.100288
0.00636014
0.0995037
0.00604622
0.0987453
0.00574547
0.0980135
0.00545711
0.0973085
0.00518041
0.0966302
0.00491464
0.0959786
0.00465913
0.0953536
0.0044132
0.094755
0.00417621
0.0941825
0.00394757
0.093636
0.00372668
0.0931151
0.00351298
0.0926195
0.00330594
0.092149
0.00310505
0.0917032
0.00290981
0.091282
0.00271974
0.0908849
0.00253439
0.0905118
0.00235331
0.0901623
0.00217607
0.0898364
0.00200224
0.0895337
0.00183143
0.0892541
0.00166322
0.0889975
0.00149723
0.0887637
0.00133304
0.0885527
0.00117028
0.0883643
0.00100854
0.0881986
0.000847441
0.0880555
0.000686575
0.0879352
0.000525536
0.0878376
0.000363908
0.087763
0.000201259
0.0877114
3.71432e-05
0.0876831
-0.000128914
0.0876784
-0.000297404
0.0876975
-0.000468849
0.0877408
-0.0006438
0.0878087
-0.000822843
0.0879016
-0.00100661
0.08802
-0.00119577
0.0881646
-0.00139108
0.0883359
-0.00159332
0.0885345
-0.00180339
0.0887613
-0.00202224
0.089017
-0.00225097
0.0893025
-0.00249076
0.0896186
-0.00274295
0.0899663
-0.00300906
0.0903466
-0.00329078
0.0907604
-0.00359004
0.0912087
-0.00390901
0.0916924
-0.00425019
0.0922122
-0.00461639
0.0927687
-0.00501083
0.0933621
-0.00543715
0.093992
-0.00589942
0.0946573
-0.00640221
0.0953559
-0.00695047
0.0960841
-0.00754946
0.0968366
-0.00820448
0.0976056
-0.00892049
0.0983808
-0.00970147
0.0991497
-0.0105495
0.0998975
-0.0114636
0.10061
-0.0124385
-0.0134637
0.101275
0.100203
0.00109017
0.100823
0.00331051
0.10183
0.00549028
0.103158
0.00754372
0.104717
0.00941047
0.106416
0.0110526
0.108163
0.012449
0.109877
0.013593
0.111489
0.0144898
0.112947
0.0151535
0.114218
0.0156042
0.115279
0.0158655
0.116124
0.0159629
0.116756
0.0159215
0.117183
0.0157654
0.117421
0.0155168
0.117488
0.0151953
0.117401
0.014818
0.117181
0.0143995
0.116846
0.0139518
0.116413
0.0134851
0.115898
0.0130074
0.115316
0.0125252
0.11468
0.0120435
0.114002
0.0115665
0.11329
0.011097
0.112555
0.0106372
0.111803
0.0101888
0.11104
0.00975293
0.110273
0.0093302
0.109507
0.00892103
0.108744
0.00852557
0.107989
0.00814375
0.107244
0.00777539
0.106512
0.00742018
0.105794
0.00707773
0.105093
0.0067476
0.104409
0.0064293
0.103743
0.00612231
0.103098
0.00582611
0.102472
0.00554015
0.101867
0.00526389
0.101283
0.0049968
0.100721
0.00473834
0.100181
0.00448799
0.099662
0.00424523
0.0991653
0.00400958
0.0986906
0.00378053
0.0982379
0.00355761
0.0978073
0.00334035
0.0973986
0.00312829
0.0970119
0.002921
0.096647
0.00271804
0.096304
0.00251896
0.0959828
0.00232337
0.0956833
0.00213083
0.0954055
0.00194094
0.0951493
0.00175328
0.0949147
0.00156746
0.0947019
0.00138305
0.0945106
0.00119965
0.0943411
0.00101683
0.0941934
0.000834189
0.0940675
0.000651277
0.0939636
0.000467654
0.0938819
0.00028286
0.0938225
9.6416e-05
0.0937856
-9.2186e-05
0.0937716
-0.000283475
0.0937806
-0.000478004
0.093813
-0.000676364
0.0938692
-0.000879179
0.0939496
-0.00108712
0.0940546
-0.0013009
0.0941846
-0.0015213
0.0943403
-0.00174916
0.0945222
-0.00198541
0.0947309
-0.00223104
0.0949669
-0.00248717
0.095231
-0.00275503
0.0955239
-0.00303596
0.0958461
-0.00333149
0.0961985
-0.0036433
0.0965815
-0.00397326
0.0969958
-0.00432349
0.0974417
-0.00469633
0.0979196
-0.00509443
0.0984293
-0.00552071
0.0989704
-0.00597841
0.0995419
-0.00647106
0.100142
-0.00700247
0.100768
-0.00757666
0.101417
-0.00819767
0.102082
-0.00886936
0.102756
-0.00959503
0.103432
-0.010377
0.104098
-0.0112158
0.104744
-0.0121096
0.10536
-0.0130537
-0.0140397
0.105936
0.100157
0.000933604
0.100636
0.00283058
0.101425
0.00470176
0.102482
0.00648644
0.103753
0.00813924
0.105176
0.00962928
0.106688
0.0109371
0.108228
0.0120533
0.109741
0.0129768
0.111181
0.0137133
0.112512
0.0142731
0.113707
0.0146701
0.114749
0.0149204
0.11563
0.0150409
0.116346
0.0150489
0.116902
0.0149611
0.117304
0.014793
0.117563
0.0145591
0.11769
0.0142722
0.117698
0.0139435
0.117601
0.0135829
0.117409
0.0131985
0.117137
0.0127976
0.116794
0.0123858
0.116393
0.0119681
0.115941
0.0115483
0.115449
0.0111295
0.114923
0.0107144
0.114371
0.0103047
0.113799
0.00990205
0.113213
0.00950752
0.112616
0.00912191
0.112014
0.00874578
0.11141
0.00837945
0.110807
0.00802311
0.110208
0.00767677
0.109615
0.00734038
0.109031
0.00701376
0.108456
0.00669669
0.107893
0.00638889
0.107343
0.00609005
0.106807
0.0057998
0.106286
0.00551777
0.105781
0.00524359
0.105292
0.00497684
0.10482
0.00471711
0.104365
0.00446401
0.103929
0.00421711
0.10351
0.003976
0.10311
0.00374027
0.102729
0.00350951
0.102366
0.00328331
0.102023
0.00306126
0.101699
0.00284296
0.101394
0.00262799
0.101109
0.00241597
0.100843
0.00220648
0.100597
0.00199912
0.100371
0.00179347
0.100165
0.00158913
0.0999788
0.00138568
0.0998129
0.00118269
0.0996672
0.00097972
0.0995421
0.000776331
0.0994375
0.000572059
0.0993538
0.000366427
0.0992912
0.000158934
0.0992498
-5.09506e-05
0.09923
-0.000263782
0.099232
-0.000480138
0.0992561
-0.000700631
0.0993027
-0.000925912
0.0993722
-0.00115668
0.0994648
-0.00139367
0.0995811
-0.00163768
0.0997214
-0.00188959
0.0998862
-0.00215034
0.100076
-0.00242094
0.100291
-0.00270252
0.100532
-0.00299631
0.1008
-0.00330364
0.101094
-0.003626
0.101416
-0.00396502
0.101765
-0.00432252
0.102142
-0.00470048
0.102546
-0.00510109
0.102978
-0.00552675
0.103438
-0.00598008
0.103923
-0.0064639
0.104433
-0.00698122
0.104966
-0.00753518
0.105518
-0.00812896
0.106086
-0.00876563
0.106665
-0.00944792
0.107248
-0.010178
0.107828
-0.0109569
0.108397
-0.0117845
0.108946
-0.0126587
0.109467
-0.0135751
-0.0145273
0.109955
0.100124
0.000809523
0.100504
0.00245061
0.101132
0.00407366
0.101984
0.00563461
0.103024
0.00709903
0.104211
0.00844213
0.105501
0.00964714
0.106849
0.0107045
0.108216
0.0116106
0.109562
0.0123671
0.110856
0.012979
0.112072
0.0134542
0.113189
0.0138028
0.114194
0.0140359
0.115078
0.0141652
0.115836
0.0142028
0.116468
0.0141605
0.116978
0.0140494
0.11737
0.0138801
0.117651
0.0136621
0.11783
0.0134042
0.117914
0.013114
0.117914
0.0127983
0.117836
0.0124629
0.117691
0.012113
0.117487
0.0117528
0.11723
0.0113859
0.116929
0.0110154
0.11659
0.0106438
0.116219
0.0102731
0.115821
0.009905
0.115402
0.00954081
0.114966
0.00918157
0.114518
0.00882809
0.11406
0.00848096
0.113596
0.00814062
0.113129
0.00780734
0.112661
0.00748128
0.112195
0.00716251
0.111733
0.006851
0.111276
0.00654668
0.110826
0.0062494
0.110385
0.00595896
0.109954
0.00567515
0.109533
0.00539772
0.109123
0.00512637
0.108726
0.00486081
0.108343
0.00460074
0.107973
0.00434581
0.107617
0.0040957
0.107276
0.00385005
0.106951
0.00360852
0.106642
0.00337074
0.106348
0.00313635
0.106071
0.00290498
0.105811
0.00267625
0.105567
0.00244978
0.105341
0.00222518
0.105132
0.00200206
0.104941
0.00178002
0.104768
0.00155863
0.104613
0.00133748
0.104477
0.00111614
0.104359
0.000894145
0.10426
0.00067104
0.10418
0.000446336
0.104119
0.000219526
0.104078
-9.93226e-06
0.104057
-0.000242613
0.104055
-0.000479104
0.104075
-0.000720029
0.104115
-0.000966051
0.104176
-0.00121788
0.104258
-0.00147627
0.104363
-0.00174203
0.104489
-0.00201603
0.104638
-0.00229922
0.104809
-0.00259262
0.105004
-0.00289734
0.105222
-0.00321457
0.105464
-0.00354564
0.10573
-0.00389197
0.10602
-0.00425512
0.106334
-0.00463679
0.106672
-0.00503882
0.107034
-0.00546322
0.107419
-0.00591215
0.107827
-0.0063879
0.108256
-0.0068929
0.108704
-0.00742967
0.10917
-0.00800077
0.10965
-0.00860866
0.11014
-0.00925563
0.110636
-0.00994358
0.111132
-0.0106738
0.111622
-0.0114467
0.112099
-0.0122616
0.112557
-0.0131164
0.112989
-0.0140073
-0.0149291
0.113391
0.1001
0.000709078
0.100407
0.00214365
0.100916
0.00356463
0.101612
0.0049392
0.10247
0.00624079
0.103462
0.00744948
0.104558
0.00855107
0.105726
0.00953668
0.106934
0.0104021
0.108155
0.0111467
0.10936
0.0117731
0.110529
0.0122856
0.111641
0.0126906
0.112682
0.0129952
0.113639
0.0132077
0.114505
0.0133364
0.115276
0.0133898
0.115949
0.0133765
0.116524
0.0133046
0.117005
0.0131818
0.117393
0.0130153
0.117695
0.0128119
0.117916
0.0125775
0.118061
0.0123174
0.118138
0.0120366
0.118151
0.0117393
0.118108
0.0114292
0.118014
0.0111094
0.117875
0.0107828
0.117696
0.0104517
0.117483
0.0101181
0.11724
0.00978372
0.116971
0.00944987
0.116681
0.00911773
0.116374
0.00878825
0.116052
0.00846215
0.11572
0.00814004
0.115379
0.00782234
0.115032
0.00750939
0.114681
0.00720141
0.114329
0.00689854
0.113978
0.00660083
0.113628
0.00630828
0.113282
0.00602084
0.112942
0.0057384
0.112607
0.00546082
0.11228
0.00518793
0.111961
0.00491951
0.111651
0.00465535
0.111352
0.00439519
0.111063
0.00413876
0.110786
0.00388578
0.11052
0.00363595
0.110268
0.00338896
0.110028
0.00314449
0.109802
0.0029022
0.10959
0.00266174
0.109392
0.00242276
0.109209
0.00218489
0.109041
0.00194774
0.108889
0.00171092
0.108752
0.00147402
0.108632
0.00123662
0.108528
0.000998267
0.10844
0.000758514
0.108369
0.000516875
0.108316
0.000272844
0.10828
2.58782e-05
0.108262
-0.000224603
0.108262
-0.000479187
0.10828
-0.000738497
0.108317
-0.0010032
0.108373
-0.001274
0.108448
-0.00155165
0.108543
-0.00183696
0.108658
-0.0021308
0.108793
-0.00243409
0.108948
-0.00274783
0.109123
-0.00307311
0.10932
-0.00341109
0.109537
-0.00376303
0.109775
-0.00413028
0.110034
-0.00451432
0.110314
-0.0049167
0.110614
-0.00533914
0.110935
-0.00578342
0.111274
-0.00625145
0.111631
-0.00674524