/*--------------------------------*- C++ -*----------------------------------*\
| =========                 |                                                 |
| \\      /  F ield         | OpenFOAM: The Open Source CFD Toolbox           |
|  \\    /   O peration     | Version:  2406                                  |
|   \\  /    A nd           | Website:  www.openfoam.com                      |
|    \\/     M anipulation  |                                                 |
\*---------------------------------------------------------------------------*/
FoamFile
{
    version     2.0;
    format      ascii;
    arch        "LSB;label=32;scalar=64";
    class       volVectorField;
    location    "50";
    object      U;
}
// * * * * * * * * * * * * * * * * * * * * * * * * * * * * * * * * * * * * * //

dimensions      [0 1 -1 0 0 0 0];

internalField   nonuniform List<vector> 
150000
(
(7.94099 0.953522 0)
(6.69761 1.02911 0)
(5.17782 0.578324 0)
(3.90276 0.294319 0)
(3.1123 0.166045 0)
(2.60453 0.0997967 0)
(2.24878 0.0623676 0)
(1.98999 0.0413574 0)
(1.79557 0.0292506 0)
(1.64406 0.0218445 0)
(1.52221 0.0170308 0)
(1.42177 0.0137296 0)
(1.33734 0.0113567 0)
(1.26524 0.0095829 0)
(1.20285 0.00821342 0)
(1.14829 0.00712792 0)
(1.10014 0.00624898 0)
(1.05732 0.00552509 0)
(1.01898 0.00492047 0)
(0.984472 0.0044094 0)
(0.953244 0.00397282 0)
(0.924862 0.00359641 0)
(0.898965 0.00326922 0)
(0.875254 0.00298274 0)
(0.853476 0.00273027 0)
(0.83342 0.00250643 0)
(0.814904 0.00230691 0)
(0.797772 0.00212812 0)
(0.781889 0.00196718 0)
(0.76714 0.00182164 0)
(0.753423 0.00168953 0)
(0.740648 0.00156911 0)
(0.728738 0.00145898 0)
(0.717623 0.00135787 0)
(0.707243 0.00126479 0)
(0.697542 0.00117876 0)
(0.688472 0.00109908 0)
(0.67999 0.001025 0)
(0.672056 0.000955983 0)
(0.664637 0.000891441 0)
(0.657699 0.000830993 0)
(0.651216 0.000774148 0)
(0.645161 0.000720629 0)
(0.639512 0.000670023 0)
(0.634247 0.000622134 0)
(0.629348 0.000576605 0)
(0.624798 0.000533298 0)
(0.620582 0.000491899 0)
(0.616685 0.000452316 0)
(0.613096 0.000414264 0)
(0.609802 0.000377687 0)
(0.606796 0.000342321 0)
(0.604067 0.00030814 0)
(0.601607 0.000274893 0)
(0.599411 0.000242574 0)
(0.597473 0.000210942 0)
(0.595787 0.000180008 0)
(0.59435 0.000149532 0)
(0.593158 0.000119542 0)
(0.59221 8.97944e-05 0)
(0.591504 6.03303e-05 0)
(0.591039 3.09022e-05 0)
(0.590816 1.55932e-06 0)
(0.590835 -2.79612e-05 0)
(0.591099 -5.76098e-05 0)
(0.59161 -8.76767e-05 0)
(0.592373 -0.000118115 0)
(0.593392 -0.000149248 0)
(0.594674 -0.000181033 0)
(0.596225 -0.000213833 0)
(0.598055 -0.000247619 0)
(0.600173 -0.000282803 0)
(0.60259 -0.000319381 0)
(0.60532 -0.000357835 0)
(0.608378 -0.000398201 0)
(0.611781 -0.000441056 0)
(0.615548 -0.000486504 0)
(0.619703 -0.000535254 0)
(0.62427 -0.000587514 0)
(0.629279 -0.000644189 0)
(0.634764 -0.000705657 0)
(0.640763 -0.000773117 0)
(0.647323 -0.000847232 0)
(0.654497 -0.000929669 0)
(0.662348 -0.00102162 0)
(0.670952 -0.00112556 0)
(0.680399 -0.00124377 0)
(0.690803 -0.00138041 0)
(0.702306 -0.00154054 0)
(0.715089 -0.00173323 0)
(0.729399 -0.00197332 0)
(0.745577 -0.00229008 0)
(0.764132 -0.00274228 0)
(0.785892 -0.00345798 0)
(0.812319 -0.00473957 0)
(0.846058 -0.00732378 0)
(0.891932 -0.0128742 0)
(0.961605 -0.0261653 0)
(1.09166 -0.0736896 0)
(1.29468 -0.279441 0)
(10.2186 1.887 0)
(10.3828 2.72465 0)
(9.62227 2.24066 0)
(8.49667 1.61984 0)
(7.47849 1.14 0)
(6.64467 0.807405 0)
(5.96633 0.585822 0)
(5.41639 0.438933 0)
(4.96924 0.339759 0)
(4.60136 0.270824 0)
(4.29432 0.221332 0)
(4.03452 0.184659 0)
(3.81196 0.156696 0)
(3.61917 0.134837 0)
(3.45052 0.117379 0)
(3.30174 0.103179 0)
(3.16949 0.0914469 0)
(3.05118 0.0816241 0)
(2.94472 0.0733039 0)
(2.84844 0.0661846 0)
(2.76098 0.060038 0)
(2.6812 0.0546883 0)
(2.60818 0.0499985 0)
(2.54112 0.0458604 0)
(2.47937 0.0421874 0)
(2.42236 0.0389092 0)
(2.3696 0.0359687 0)
(2.32068 0.0333189 0)
(2.27524 0.0309205 0)
(2.23295 0.028741 0)
(2.19355 0.0267527 0)
(2.1568 0.0249323 0)
(2.12246 0.02326 0)
(2.09037 0.0217187 0)
(2.06035 0.0202937 0)
(2.03224 0.0189722 0)
(2.00592 0.0177433 0)
(1.98126 0.0165971 0)
(1.95816 0.0155253 0)
(1.93652 0.0145202 0)
(1.91624 0.0135752 0)
(1.89726 0.0126845 0)
(1.87949 0.0118427 0)
(1.86289 0.0110451 0)
(1.84737 0.0102873 0)
(1.8329 0.00956564 0)
(1.81943 0.00887648 0)
(1.8069 0.0082166 0)
(1.79529 0.00758311 0)
(1.78456 0.00697326 0)
(1.77467 0.00638455 0)
(1.7656 0.00581461 0)
(1.75731 0.00526128 0)
(1.7498 0.00472245 0)
(1.74304 0.00419617 0)
(1.73701 0.00368054 0)
(1.73171 0.00317378 0)
(1.7271 0.00267408 0)
(1.7232 0.00217977 0)
(1.71998 0.00168913 0)
(1.71745 0.00120051 0)
(1.71561 0.00071222 0)
(1.71444 0.000222608 0)
(1.71396 -0.000270091 0)
(1.71416 -0.000767653 0)
(1.71507 -0.00127205 0)
(1.71667 -0.00178528 0)
(1.719 -0.00230954 0)
(1.72205 -0.0028471 0)
(1.72585 -0.00340045 0)
(1.73043 -0.00397225 0)
(1.7358 -0.00456545 0)
(1.742 -0.00518327 0)
(1.74906 -0.00582933 0)
(1.75701 -0.00650765 0)
(1.76591 -0.00722282 0)
(1.7758 -0.00798007 0)
(1.78674 -0.00878543 0)
(1.79879 -0.00964593 0)
(1.81203 -0.0105698 0)
(1.82655 -0.0115668 0)
(1.84245 -0.0126487 0)
(1.85983 -0.0138297 0)
(1.87884 -0.0151272 0)
(1.89963 -0.0165633 0)
(1.92239 -0.0181658 0)
(1.94736 -0.0199713 0)
(1.97481 -0.0220288 0)
(2.00508 -0.0244072 0)
(2.03864 -0.027207 0)
(2.07605 -0.0305849 0)
(2.1181 -0.0347976 0)
(2.16586 -0.0402937 0)
(2.22092 -0.0478966 0)
(2.28569 -0.0591905 0)
(2.36388 -0.0773092 0)
(2.46134 -0.10845 0)
(2.58824 -0.165117 0)
(2.76008 -0.275229 0)
(2.95558 -0.49799 0)
(10.1768 1.34528 0)
(10.7884 2.53734 0)
(10.9419 2.66368 0)
(10.6009 2.36622 0)
(10.0122 1.95977 0)
(9.35204 1.57433 0)
(8.70476 1.25642 0)
(8.10947 1.00976 0)
(7.57963 0.822161 0)
(7.1144 0.679472 0)
(6.70724 0.569893 0)
(6.35035 0.484544 0)
(6.03631 0.417013 0)
(5.75856 0.362741 0)
(5.51158 0.318478 0)
(5.29079 0.281887 0)
(5.09239 0.251269 0)
(4.91327 0.225367 0)
(4.75086 0.203239 0)
(4.60301 0.184168 0)
(4.46792 0.167602 0)
(4.34409 0.153108 0)
(4.23023 0.140342 0)
(4.12526 0.129032 0)
(4.02825 0.118955 0)
(3.93839 0.109933 0)
(3.855 0.101816 0)
(3.77745 0.0944823 0)
(3.70524 0.0878281 0)
(3.63789 0.0817676 0)
(3.57499 0.0762277 0)
(3.51619 0.0711463 0)
(3.46116 0.0664702 0)
(3.40961 0.0621537 0)
(3.36131 0.0581572 0)
(3.31601 0.0544464 0)
(3.27351 0.0509912 0)
(3.23363 0.0477653 0)
(3.1962 0.0447456 0)
(3.16107 0.0419115 0)
(3.12811 0.0392449 0)
(3.09719 0.0367296 0)
(3.06821 0.034351 0)
(3.04106 0.0320961 0)
(3.01566 0.0299532 0)
(2.99191 0.0279115 0)
(2.96974 0.0259615 0)
(2.94909 0.0240942 0)
(2.9299 0.0223014 0)
(2.9121 0.0205758 0)
(2.89565 0.0189103 0)
(2.88051 0.0172984 0)
(2.86663 0.0157341 0)
(2.85397 0.0142116 0)
(2.84251 0.0127255 0)
(2.83222 0.0112707 0)
(2.82307 0.00984202 0)
(2.81505 0.00843474 0)
(2.80814 0.00704414 0)
(2.80233 0.00566557 0)
(2.7976 0.00429446 0)
(2.79396 0.00292624 0)
(2.7914 0.00155631 0)
(2.78992 0.000179991 0)
(2.78953 -0.00120756 0)
(2.79024 -0.00261151 0)
(2.79206 -0.0040373 0)
(2.795 -0.00549067 0)
(2.79909 -0.00697772 0)
(2.80436 -0.008505 0)
(2.81083 -0.0100796 0)
(2.81855 -0.0117091 0)
(2.82755 -0.0134022 0)
(2.83788 -0.0151681 0)
(2.84961 -0.0170174 0)
(2.86279 -0.018962 0)
(2.87749 -0.0210154 0)
(2.8938 -0.023193 0)
(2.91182 -0.025513 0)
(2.93165 -0.0279964 0)
(2.95342 -0.030668 0)
(2.97727 -0.0335577 0)
(3.00336 -0.0367014 0)
(3.03188 -0.0401432 0)
(3.06307 -0.0439379 0)
(3.09719 -0.0481553 0)
(3.13455 -0.0528855 0)
(3.17554 -0.0582483 0)
(3.22063 -0.0644078 0)
(3.27042 -0.0715974 0)
(3.32565 -0.0801618 0)
(3.38727 -0.0906317 0)
(3.45652 -0.103857 0)
(3.53506 -0.121245 0)
(3.62507 -0.145201 0)
(3.72935 -0.179895 0)
(3.85117 -0.232509 0)
(3.9936 -0.315147 0)
(4.15579 -0.447675 0)
(4.31294 -0.654327 0)
(10.0798 0.823075 0)
(10.5968 1.94557 0)
(11.0637 2.45181 0)
(11.2359 2.5286 0)
(11.1212 2.36635 0)
(10.8158 2.10077 0)
(10.4056 1.81592 0)
(9.95233 1.55302 0)
(9.49556 1.32621 0)
(9.05706 1.13658 0)
(8.64706 0.98008 0)
(8.26914 0.851262 0)
(7.92337 0.744902 0)
(7.60801 0.656538 0)
(7.32059 0.582561 0)
(7.05845 0.520117 0)
(6.81899 0.466975 0)
(6.5998 0.421391 0)
(6.39872 0.381996 0)
(6.21383 0.347712 0)
(6.04345 0.317681 0)
(5.88608 0.291216 0)
(5.74044 0.267761 0)
(5.60537 0.246866 0)
(5.4799 0.22816 0)
(5.36312 0.211338 0)
(5.25429 0.196146 0)
(5.1527 0.18237 0)
(5.05775 0.169832 0)
(4.96891 0.15838 0)
(4.88569 0.147884 0)
(4.80767 0.138234 0)
(4.73446 0.129334 0)
(4.66573 0.121103 0)
(4.60115 0.113467 0)
(4.54045 0.106366 0)
(4.48338 0.099743 0)
(4.42971 0.0935511 0)
(4.37924 0.0877473 0)
(4.33178 0.0822938 0)
(4.28716 0.0771569 0)
(4.24521 0.0723067 0)
(4.20582 0.067716 0)
(4.16883 0.0633606 0)
(4.13415 0.0592184 0)
(4.10166 0.0552696 0)
(4.07126 0.0514959 0)
(4.04288 0.0478807 0)
(4.01642 0.0444086 0)
(3.99181 0.0410654 0)
(3.969 0.0378382 0)
(3.94792 0.0347146 0)
(3.92852 0.0316831 0)
(3.91076 0.0287329 0)
(3.89458 0.0258537 0)
(3.87996 0.0230357 0)
(3.86686 0.0202695 0)
(3.85526 0.0175458 0)
(3.84514 0.0148559 0)
(3.83647 0.0121909 0)
(3.82924 0.00954216 0)
(3.82345 0.00690112 0)
(3.8191 0.00425907 0)
(3.81618 0.00160722 0)
(3.81469 -0.0010635 0)
(3.81465 -0.00376262 0)
(3.81607 -0.00650028 0)
(3.81898 -0.00928712 0)
(3.82339 -0.0121344 0)
(3.82934 -0.0150543 0)
(3.83687 -0.0180597 0)
(3.84601 -0.0211646 0)
(3.85682 -0.0243848 0)
(3.86937 -0.0277371 0)
(3.88371 -0.0312406 0)
(3.89992 -0.0349169 0)
(3.91809 -0.0387903 0)
(3.93832 -0.0428885 0)
(3.96072 -0.0472438 0)
(3.98543 -0.0518935 0)
(4.01258 -0.0568818 0)
(4.04234 -0.062261 0)
(4.07492 -0.0680942 0)
(4.11052 -0.0744582 0)
(4.14942 -0.081448 0)
(4.19191 -0.0891826 0)
(4.23835 -0.0978148 0)
(4.28916 -0.107544 0)
(4.34486 -0.118636 0)
(4.40605 -0.13146 0)
(4.47348 -0.146535 0)
(4.54805 -0.164619 0)
(4.63084 -0.186844 0)
(4.72311 -0.214937 0)
(4.8263 -0.251562 0)
(4.94174 -0.300838 0)
(5.07008 -0.368949 0)
(5.20993 -0.464601 0)
(5.35497 -0.598361 0)
(5.4869 -0.776429 0)
(10.0426 0.545912 0)
(10.3952 1.45751 0)
(10.8539 2.0497 0)
(11.2156 2.3349 0)
(11.3932 2.38985 0)
(11.3929 2.29666 0)
(11.2526 2.12463 0)
(11.0155 1.9225 0)
(10.72 1.71913 0)
(10.3954 1.5292 0)
(10.0616 1.35873 0)
(9.73146 1.20895 0)
(9.41248 1.07873 0)
(9.1088 0.966012 0)
(8.82234 0.868459 0)
(8.55361 0.78386 0)
(8.30236 0.710244 0)
(8.06787 0.645918 0)
(7.84918 0.589455 0)
(7.64526 0.539663 0)
(7.45504 0.495552 0)
(7.27749 0.456295 0)
(7.11164 0.421206 0)
(6.95658 0.389712 0)
(6.81148 0.361329 0)
(6.67556 0.335655 0)
(6.54813 0.312345 0)
(6.42856 0.291109 0)
(6.31626 0.271699 0)
(6.21072 0.253901 0)
(6.11146 0.237532 0)
(6.01805 0.222433 0)
(5.93009 0.208469 0)
(5.84723 0.195517 0)
(5.76915 0.183474 0)
(5.69554 0.172248 0)
(5.62615 0.161757 0)
(5.56072 0.15193 0)
(5.49902 0.142703 0)
(5.44086 0.134018 0)
(5.38605 0.125826 0)
(5.33441 0.11808 0)
(5.28579 0.11074 0)
(5.24004 0.103768 0)
(5.19704 0.0971312 0)
(5.15665 0.090798 0)
(5.11878 0.0847409 0)
(5.08331 0.0789339 0)
(5.05017 0.0733536 0)
(5.01925 0.0679779 0)
(4.9905 0.0627864 0)
(4.96384 0.05776 0)
(4.93921 0.0528809 0)
(4.91655 0.0481322 0)
(4.89582 0.0434977 0)
(4.87697 0.0389622 0)
(4.85996 0.0345108 0)
(4.84476 0.0301293 0)
(4.83135 0.0258037 0)
(4.8197 0.0215203 0)
(4.8098 0.0172657 0)
(4.80164 0.0130263 0)
(4.7952 0.00878858 0)
(4.79049 0.00453882 0)
(4.78752 0.000262933 0)
(4.78629 -0.00405374 0)
(4.78681 -0.00842678 0)
(4.78911 -0.0128726 0)
(4.79322 -0.0174086 0)
(4.79916 -0.0220531 0)
(4.80698 -0.026826 0)
(4.81672 -0.0317487 0)
(4.82845 -0.0368448 0)
(4.84222 -0.0421399 0)
(4.8581 -0.0476629 0)
(4.87619 -0.0534457 0)
(4.89656 -0.0595247 0)
(4.91934 -0.0659413 0)
(4.94464 -0.0727427 0)
(4.97261 -0.0799842 0)
(5.00338 -0.08773 0)
(5.03715 -0.0960563 0)
(5.07412 -0.105054 0)
(5.11451 -0.114833 0)
(5.15859 -0.125527 0)
(5.20667 -0.137303 0)
(5.25909 -0.150372 0)
(5.31627 -0.165002 0)
(5.37868 -0.181545 0)
(5.44687 -0.20047 0)
(5.52148 -0.222412 0)
(5.60322 -0.248252 0)
(5.69286 -0.279226 0)
(5.79115 -0.317082 0)
(5.89872 -0.364295 0)
(6.01575 -0.424299 0)
(6.14131 -0.501643 0)
(6.27236 -0.601696 0)
(6.40225 -0.729184 0)
(6.51894 -0.883908 0)
(10.0236 0.384987 0)
(10.2539 1.09506 0)
(10.6182 1.6471 0)
(10.9927 2.00798 0)
(11.2868 2.19499 0)
(11.4659 2.24389 0)
(11.528 2.19545 0)
(11.4879 2.08692 0)
(11.3676 1.94702 0)
(11.1899 1.79542 0)
(10.9743 1.64433 0)
(10.7364 1.50066 0)
(10.4875 1.36777 0)
(10.2358 1.24687 0)
(9.98667 1.13792 0)
(9.74378 1.04024 0)
(9.50938 0.952845 0)
(9.28475 0.87468 0)
(9.07055 0.804701 0)
(8.86697 0.74194 0)
(8.67395 0.685524 0)
(8.4912 0.634679 0)
(8.31836 0.588729 0)
(8.15498 0.547082 0)
(8.0006 0.509228 0)
(7.85474 0.474722 0)
(7.71692 0.44318 0)
(7.58668 0.414266 0)
(7.46359 0.387692 0)
(7.34723 0.363202 0)
(7.23721 0.340576 0)
(7.13317 0.31962 0)
(7.03475 0.300162 0)
(6.94165 0.282055 0)
(6.85358 0.265163 0)
(6.77025 0.249371 0)
(6.69141 0.234573 0)
(6.61683 0.220676 0)
(6.5463 0.207598 0)
(6.4796 0.195263 0)
(6.41656 0.183605 0)
(6.35701 0.172562 0)
(6.30078 0.162079 0)
(6.24773 0.152108 0)
(6.19772 0.142603 0)
(6.15064 0.133521 0)
(6.10636 0.124825 0)
(6.06479 0.11648 0)
(6.02582 0.108453 0)
(5.98937 0.100715 0)
(5.95536 0.0932369 0)
(5.92371 0.0859926 0)
(5.89437 0.0789573 0)
(5.86726 0.0721076 0)
(5.84233 0.0654213 0)
(5.81955 0.0588769 0)
(5.79886 0.052454 0)
(5.78024 0.0461325 0)
(5.76365 0.039893 0)
(5.74907 0.0337165 0)
(5.73647 0.0275841 0)
(5.72586 0.0214769 0)
(5.71721 0.015376 0)
(5.71052 0.00926239 0)
(5.70581 0.00311636 0)
(5.70307 -0.00308232 0)
(5.70232 -0.00935504 0)
(5.70359 -0.0157244 0)
(5.70689 -0.0222144 0)
(5.71226 -0.0288501 0)
(5.71975 -0.0356588 0)
(5.72939 -0.0426696 0)
(5.74126 -0.0499144 0)
(5.7554 -0.057428 0)
(5.7719 -0.0652491 0)
(5.79083 -0.0734208 0)
(5.8123 -0.0819913 0)
(5.83641 -0.0910156 0)
(5.86329 -0.100556 0)
(5.89307 -0.110685 0)
(5.9259 -0.121487 0)
(5.96195 -0.133059 0)
(6.00143 -0.145519 0)
(6.04455 -0.159005 0)
(6.09157 -0.173686 0)
(6.14275 -0.189769 0)
(6.19843 -0.207508 0)
(6.25896 -0.227224 0)
(6.32473 -0.249324 0)
(6.39619 -0.274334 0)
(6.47382 -0.302939 0)
(6.55808 -0.336043 0)
(6.64942 -0.374844 0)
(6.74815 -0.420922 0)
(6.85428 -0.476337 0)
(6.96727 -0.543686 0)
(7.08553 -0.626007 0)
(7.20586 -0.726304 0)
(7.32282 -0.846315 0)
(7.42877 -0.984071 0)
(10.0134 0.283391 0)
(10.1647 0.835534 0)
(10.4348 1.31166 0)
(10.7562 1.67493 0)
(11.0622 1.91965 0)
(11.3126 2.0562 0)
(11.488 2.10338 0)
(11.5834 2.08336 0)
(11.6042 2.0172 0)
(11.5617 1.92237 0)
(11.4688 1.81208 0)
(11.3378 1.69567 0)
(11.1798 1.57933 0)
(11.0036 1.46687 0)
(10.8164 1.36046 0)
(10.6234 1.26115 0)
(10.4288 1.16927 0)
(10.2355 1.08475 0)
(10.0455 1.00724 0)
(9.86025 0.936272 0)
(9.68075 0.871331 0)
(9.5076 0.811885 0)
(9.34114 0.757424 0)
(9.18152 0.707466 0)
(9.02876 0.66157 0)
(8.8828 0.619334 0)
(8.74348 0.580395 0)
(8.61063 0.544427 0)
(8.48404 0.511139 0)
(8.36347 0.480269 0)
(8.2487 0.451585 0)
(8.13948 0.424879 0)
(8.03558 0.399965 0)
(7.93677 0.376677 0)
(7.84283 0.354867 0)
(7.75354 0.3344 0)
(7.6687 0.315156 0)
(7.58812 0.297028 0)
(7.51162 0.279917 0)
(7.43902 0.263735 0)
(7.37017 0.248403 0)
(7.3049 0.233846 0)
(7.24308 0.22 0)
(7.18458 0.206802 0)
(7.12927 0.194198 0)
(7.07703 0.182137 0)
(7.02776 0.17057 0)
(6.98135 0.159455 0)
(6.93773 0.14875 0)
(6.89679 0.138419 0)
(6.85847 0.128425 0)
(6.82269 0.118735 0)
(6.78938 0.109318 0)
(6.75849 0.100144 0)
(6.72997 0.0911839 0)
(6.70377 0.0824112 0)
(6.67984 0.0737991 0)
(6.65816 0.0653221 0)
(6.63869 0.0569551 0)
(6.6214 0.0486736 0)
(6.60628 0.0404531 0)
(6.59331 0.0322694 0)
(6.58248 0.0240981 0)
(6.57379 0.0159144 0)
(6.56725 0.00769314 0)
(6.56285 -0.000591749 0)
(6.56062 -0.00896754 0)
(6.56057 -0.0174631 0)
(6.56273 -0.026109 0)
(6.56713 -0.0349374 0)
(6.57381 -0.0439826 0)
(6.58281 -0.0532817 0)
(6.5942 -0.0628746 0)
(6.60803 -0.0728054 0)
(6.62437 -0.0831221 0)
(6.64331 -0.0938784 0)
(6.66494 -0.105134 0)
(6.68936 -0.116957 0)
(6.71668 -0.129423 0)
(6.74704 -0.14262 0)
(6.78057 -0.156649 0)
(6.81744 -0.171628 0)
(6.85783 -0.187695 0)
(6.90193 -0.205013 0)
(6.94996 -0.223776 0)
(7.00216 -0.244219 0)
(7.05879 -0.266627 0)
(7.12016 -0.29135 0)
(7.18654 -0.318821 0)
(7.25827 -0.349581 0)
(7.33564 -0.384311 0)
(7.41892 -0.423866 0)
(7.50825 -0.469318 0)
(7.60361 -0.521996 0)
(7.70464 -0.583503 0)
(7.81045 -0.655674 0)
(7.91933 -0.740409 0)
(8.02845 -0.839239 0)
(8.13379 -0.952488 0)
(8.23051 -1.078 0)
(10.0083 0.217453 0)
(10.1104 0.652999 0)
(10.307 1.05203 0)
(10.563 1.38522 0)
(10.8355 1.64106 0)
(11.092 1.81901 0)
(11.3107 1.92542 0)
(11.4784 1.97114 0)
(11.5905 1.96883 0)
(11.6481 1.93087 0)
(11.6567 1.86816 0)
(11.6233 1.78956 0)
(11.5555 1.70192 0)
(11.4606 1.61026 0)
(11.3452 1.51809 0)
(11.2147 1.42777 0)
(11.0737 1.34079 0)
(10.9261 1.25803 0)
(10.7747 1.17994 0)
(10.6218 1.10667 0)
(10.4693 1.03817 0)
(10.3184 0.974299 0)
(10.1701 0.914818 0)
(10.0253 0.859463 0)
(9.8844 0.807953 0)
(9.74779 0.760006 0)
(9.6157 0.715344 0)
(9.48827 0.673707 0)
(9.36557 0.634848 0)
(9.24761 0.598538 0)
(9.13434 0.564564 0)
(9.02571 0.532733 0)
(8.92162 0.502866 0)
(8.82198 0.474799 0)
(8.72667 0.448384 0)
(8.63556 0.423484 0)
(8.54854 0.399975 0)
(8.46548 0.377743 0)
(8.38626 0.356684 0)
(8.31075 0.336702 0)
(8.23884 0.317711 0)
(8.17041 0.29963 0)
(8.10535 0.282385 0)
(8.04356 0.265909 0)
(7.98493 0.250137 0)
(7.92938 0.235013 0)
(7.87681 0.220481 0)
(7.82713 0.206492 0)
(7.78027 0.192999 0)
(7.73615 0.179956 0)
(7.69472 0.167322 0)
(7.65589 0.155059 0)
(7.61962 0.143129 0)
(7.58586 0.131495 0)
(7.55455 0.120125 0)
(7.52565 0.108985 0)
(7.49912 0.0980433 0)
(7.47494 0.0872694 0)
(7.45307 0.0766328 0)
(7.4335 0.0661036 0)
(7.41619 0.0556524 0)
(7.40115 0.0452495 0)
(7.38836 0.0348652 0)
(7.37781 0.0244695 0)
(7.36952 0.0140315 0)
(7.36349 0.00351966 0)
(7.35972 -0.00709914 0)
(7.35825 -0.0178597 0)
(7.35909 -0.0287988 0)
(7.36228 -0.0399554 0)
(7.36785 -0.0513706 0)
(7.37584 -0.0630889 0)
(7.38631 -0.0751581 0)
(7.39932 -0.0876303 0)
(7.41493 -0.100563 0)
(7.43322 -0.114018 0)
(7.45426 -0.128067 0)
(7.47817 -0.142787 0)
(7.50503 -0.158269 0)
(7.53497 -0.174611 0)
(7.56811 -0.19193 0)
(7.60459 -0.210358 0)
(7.64457 -0.230048 0)
(7.68821 -0.251182 0)
(7.73569 -0.273971 0)
(7.78721 -0.298665 0)
(7.84296 -0.325564 0)
(7.90317 -0.355028 0)
(7.96802 -0.387491 0)
(8.03772 -0.423476 0)
(8.11241 -0.46362 0)
(8.19218 -0.508687 0)
(8.27696 -0.559589 0)
(8.36651 -0.617388 0)
(8.46026 -0.683271 0)
(8.55723 -0.758479 0)
(8.65581 -0.844133 0)
(8.75374 -0.940904 0)
(8.8481 -1.04851 0)
(8.9358 -1.16508 0)
(10.0055 0.172924 0)
(10.0769 0.52326 0)
(10.2207 0.855598 0)
(10.4191 1.14902 0)
(10.6458 1.39246 0)
(10.8782 1.58179 0)
(11.098 1.7176 0)
(11.2914 1.80408 0)
(11.4496 1.84777 0)
(11.5684 1.85619 0)
(11.6474 1.83689 0)
(11.6888 1.79681 0)
(11.6963 1.74193 0)
(11.6744 1.67716 0)
(11.6277 1.60638 0)
(11.5607 1.53254 0)
(11.4775 1.45782 0)
(11.3817 1.38378 0)
(11.2765 1.3115 0)
(11.1643 1.24169 0)
(11.0476 1.17478 0)
(10.9279 1.11101 0)
(10.8068 1.05048 0)
(10.6855 0.993198 0)
(10.5648 0.939087 0)
(10.4456 0.888038 0)
(10.3284 0.839911 0)
(10.2136 0.794554 0)
(10.1016 0.751805 0)
(9.99255 0.711501 0)
(9.88675 0.673482 0)
(9.78428 0.637595 0)
(9.68522 0.60369 0)
(9.5896 0.571629 0)
(9.49745 0.54128 0)
(9.40875 0.512517 0)
(9.32348 0.485227 0)
(9.2416 0.459301 0)
(9.16306 0.434637 0)
(9.08782 0.411144 0)
(9.01581 0.388733 0)
(8.94696 0.367322 0)
(8.88122 0.346838 0)
(8.81851 0.327208 0)
(8.75878 0.308366 0)
(8.70196 0.290252 0)
(8.64798 0.272807 0)
(8.5968 0.255976 0)
(8.54834 0.239708 0)
(8.50256 0.223955 0)
(8.45941 0.208671 0)
(8.41883 0.193812 0)
(8.38078 0.179336 0)
(8.34523 0.165204 0)
(8.31212 0.151376 0)
(8.28143 0.137815 0)
(8.25314 0.124486 0)
(8.2272 0.111352 0)
(8.2036 0.0983798 0)
(8.18233 0.0855336 0)
(8.16336 0.0727797 0)
(8.14669 0.0600838 0)
(8.13231 0.0474114 0)
(8.12022 0.0347276 0)
(8.11043 0.0219964 0)
(8.10294 0.00918124 0)
(8.09777 -0.00375645 0)
(8.09493 -0.0168569 0)
(8.09445 -0.0301626 0)
(8.09635 -0.0437186 0)
(8.10068 -0.0575722 0)
(8.10746 -0.0717745 0)
(8.11676 -0.0863803 0)
(8.12862 -0.101449 0)
(8.1431 -0.117045 0)
(8.16027 -0.13324 0)
(8.1802 -0.150113 0)
(8.20298 -0.167752 0)
(8.2287 -0.186254 0)
(8.25745 -0.205731 0)
(8.28935 -0.226308 0)
(8.32451 -0.248128 0)
(8.36306 -0.271356 0)
(8.40513 -0.296182 0)
(8.45085 -0.322826 0)
(8.50038 -0.351544 0)
(8.55384 -0.382638 0)
(8.61138 -0.416459 0)
(8.6731 -0.453422 0)
(8.73911 -0.494015 0)
(8.80941 -0.538805 0)
(8.88396 -0.58845 0)
(8.96255 -0.643695 0)
(9.04481 -0.705358 0)
(9.1301 -0.77429 0)
(9.21744 -0.851296 0)
(9.30547 -0.936992 0)
(9.39239 -1.03158 0)
(9.47612 -1.13456 0)
(9.5546 -1.24443 0)
(10.004 0.141424 0)
(10.0557 0.428885 0)
(10.1626 0.707018 0)
(10.3157 0.961395 0)
(10.4989 1.18306 0)
(10.6976 1.36736 0)
(10.8982 1.51269 0)
(11.0892 1.62 0)
(11.2617 1.69214 0)
(11.4094 1.73317 0)
(11.5291 1.74774 0)
(11.6195 1.74061 0)
(11.6813 1.71628 0)
(11.7162 1.67882 0)
(11.7267 1.63173 0)
(11.7157 1.57791 0)
(11.6862 1.51972 0)
(11.6409 1.45904 0)
(11.5826 1.39728 0)
(11.5137 1.33553 0)
(11.4364 1.27459 0)
(11.3525 1.21502 0)
(11.2637 1.15722 0)
(11.1714 1.10144 0)
(11.0768 1.04783 0)
(10.9807 0.996469 0)
(10.8841 0.947375 0)
(10.7876 0.900526 0)
(10.6917 0.855868 0)
(10.597 0.81333 0)
(10.5038 0.772826 0)
(10.4124 0.734263 0)
(10.323 0.697542 0)
(10.2358 0.662565 0)
(10.1511 0.629233 0)
(10.0687 0.597448 0)
(9.98896 0.567117 0)
(9.91179 0.538148 0)
(9.83728 0.510454 0)
(9.76543 0.483951 0)
(9.69627 0.458561 0)
(9.62977 0.434209 0)
(9.56595 0.410822 0)
(9.50477 0.388333 0)
(9.44622 0.366678 0)
(9.39028 0.345795 0)
(9.33692 0.325628 0)
(9.2861 0.30612 0)
(9.2378 0.287219 0)
(9.192 0.268875 0)
(9.14865 0.251041 0)
(9.10774 0.23367 0)
(9.06924 0.216718 0)
(9.03312 0.200141 0)
(8.99935 0.1839 0)
(8.96793 0.167953 0)
(8.93882 0.152261 0)
(8.91201 0.136785 0)
(8.88749 0.121487 0)
(8.86525 0.106328 0)
(8.84528 0.0912714 0)
(8.82758 0.0762782 0)
(8.81214 0.0613102 0)
(8.79897 0.0463283 0)
(8.78807 0.0312923 0)
(8.77946 0.0161611 0)
(8.77314 0.000891685 0)
(8.76914 -0.0145612 0)
(8.76749 -0.030245 0)
(8.7682 -0.0462096 0)
(8.77131 -0.062508 0)
(8.77686 -0.0791967 0)
(8.78488 -0.0963363 0)
(8.79544 -0.113992 0)
(8.80857 -0.132236 0)
(8.82435 -0.151145 0)
(8.84283 -0.170806 0)
(8.86408 -0.191312 0)
(8.88819 -0.212769 0)
(8.91522 -0.235296 0)
(8.94528 -0.259023 0)
(8.97845 -0.284102 0)
(9.01482 -0.310701 0)
(9.0545 -0.339013 0)
(9.09758 -0.369261 0)
(9.14416 -0.401696 0)
(9.19431 -0.436611 0)
(9.24812 -0.474339 0)
(9.30561 -0.515263 0)
(9.36679 -0.559819 0)
(9.43158 -0.608501 0)
(9.49984 -0.661856 0)
(9.57129 -0.720476 0)
(9.64547 -0.784975 0)
(9.72175 -0.855943 0)
(9.79924 -0.933883 0)
(9.87679 -1.0191 0)
(9.953 -1.11155 0)
(10.0264 -1.21069 0)
(10.0955 -1.31534 0)
(10.003 0.118219 0)
(10.0417 0.358441 0)
(10.1229 0.593451 0)
(10.2418 0.813295 0)
(10.3887 1.01114 0)
(10.5541 1.18284 0)
(10.7286 1.32625 0)
(10.9036 1.44093 0)
(11.0714 1.52784 0)
(11.2261 1.58895 0)
(11.3632 1.62688 0)
(11.4802 1.6446 0)
(11.5756 1.6452 0)
(11.6493 1.63167 0)
(11.7019 1.60679 0)
(11.7348 1.57305 0)
(11.7495 1.53262 0)
(11.748 1.48731 0)
(11.7322 1.43864 0)
(11.704 1.38784 0)
(11.6652 1.33591 0)
(11.6174 1.28361 0)
(11.5622 1.23155 0)
(11.5011 1.18017 0)
(11.4351 1.12981 0)
(11.3653 1.08071 0)
(11.2928 1.03303 0)
(11.2182 0.986887 0)
(11.1423 0.942338 0)
(11.0657 0.899408 0)
(10.989 0.858096 0)
(10.9124 0.81838 0)
(10.8364 0.780223 0)
(10.7614 0.743579 0)
(10.6875 0.708393 0)
(10.6149 0.674605 0)
(10.5439 0.64215 0)
(10.4746 0.610966 0)
(10.4071 0.580987 0)
(10.3416 0.552147 0)
(10.278 0.524382 0)
(10.2164 0.49763 0)
(10.157 0.471829 0)
(10.0997 0.44692 0)
(10.0445 0.422845 0)
(9.99158 0.399548 0)
(9.94081 0.376975 0)
(9.89224 0.355075 0)
(9.84588 0.333796 0)
(9.80171 0.31309 0)
(9.75975 0.292911 0)
(9.71998 0.273211 0)
(9.6824 0.253946 0)
(9.64701 0.235073 0)
(9.6138 0.21655 0)
(9.58276 0.198334 0)
(9.5539 0.180384 0)
(9.5272 0.16266 0)
(9.50266 0.145121 0)
(9.48029 0.127727 0)
(9.46008 0.110436 0)
(9.44205 0.093209 0)
(9.42618 0.0760036 0)
(9.4125 0.0587776 0)
(9.40101 0.0414877 0)
(9.39172 0.0240892 0)
(9.38466 0.00653539 0)
(9.37984 -0.0112231 0)
(9.37729 -0.0292374 0)
(9.37703 -0.0475616 0)
(9.37909 -0.0662531 0)
(9.38351 -0.0853728 0)
(9.39033 -0.104986 0)
(9.39959 -0.125163 0)
(9.41133 -0.145979 0)
(9.4256 -0.167518 0)
(9.44247 -0.189869 0)
(9.46198 -0.213134 0)
(9.4842 -0.23742 0)
(9.50919 -0.26285 0)
(9.53702 -0.28956 0)
(9.56776 -0.317701 0)
(9.60147 -0.347444 0)
(9.63822 -0.378979 0)
(9.67807 -0.412523 0)
(9.72108 -0.448319 0)
(9.76726 -0.48664 0)
(9.81664 -0.527794 0)
(9.8692 -0.572126 0)
(9.92486 -0.620017 0)
(9.9835 -0.671885 0)
(10.0449 -0.728174 0)
(10.1087 -0.789344 0)
(10.1745 -0.855846 0)
(10.2417 -0.928079 0)
(10.3095 -1.00634 0)
(10.3768 -1.09074 0)
(10.4427 -1.18114 0)
(10.5061 -1.277 0)
(10.5658 -1.37741 0)
(10.0023 0.100543 0)
(10.0322 0.304506 0)
(10.0952 0.505273 0)
(10.1888 0.695859 0)
(10.3069 0.871124 0)
(10.4432 1.02766 0)
(10.5916 1.1634 0)
(10.7456 1.27744 0)
(10.8996 1.36985 0)
(11.0483 1.44148 0)
(11.1877 1.4937 0)
(11.3146 1.52829 0)
(11.4268 1.5472 0)
(11.5231 1.55249 0)
(11.6029 1.5462 0)
(11.6664 1.53025 0)
(11.714 1.50642 0)
(11.7468 1.47629 0)
(11.7658 1.44127 0)
(11.7723 1.40254 0)
(11.7675 1.36114 0)
(11.7527 1.3179 0)
(11.7292 1.27353 0)
(11.6982 1.22859 0)
(11.6607 1.18354 0)
(11.6178 1.13874 0)
(11.5704 1.09447 0)
(11.5193 1.05093 0)
(11.4653 1.0083 0)
(11.409 0.96668 0)
(11.3509 0.926157 0)
(11.2917 0.886777 0)
(11.2316 0.848567 0)
(11.1712 0.811537 0)
(11.1108 0.775678 0)
(11.0506 0.740975 0)
(10.991 0.707401 0)
(10.9321 0.674923 0)
(10.8741 0.643503 0)
(10.8172 0.6131 0)
(10.7615 0.583671 0)
(10.7072 0.555169 0)
(10.6543 0.52755 0)
(10.6029 0.500766 0)
(10.5532 0.474769 0)
(10.5052 0.449515 0)
(10.4588 0.424955 0)
(10.4142 0.401044 0)
(10.3715 0.377738 0)
(10.3305 0.354991 0)
(10.2915 0.332759 0)
(10.2543 0.311 0)
(10.219 0.28967 0)
(10.1856 0.268728 0)
(10.1542 0.248132 0)
(10.1247 0.22784 0)
(10.0971 0.20781 0)
(10.0715 0.188003 0)
(10.0479 0.168376 0)
(10.0263 0.148889 0)
(10.0067 0.129499 0)
(9.98908 0.110163 0)
(9.9735 0.0908393 0)
(9.95995 0.0714827 0)
(9.94846 0.0520479 0)
(9.93905 0.0324876 0)
(9.93172 0.0127526 0)
(9.92652 -0.00720935 0)
(9.92345 -0.0274526 0)
(9.92255 -0.0480342 0)
(9.92385 -0.0690144 0)
(9.92738 -0.0904573 0)
(9.93317 -0.112432 0)
(9.94126 -0.13501 0)
(9.9517 -0.158273 0)
(9.96452 -0.182306 0)
(9.97976 -0.207203 0)
(9.99748 -0.233064 0)
(10.0177 -0.260003 0)
(10.0405 -0.288142 0)
(10.0659 -0.317618 0)
(10.094 -0.34858 0)
(10.1248 -0.381196 0)
(10.1583 -0.41565 0)
(10.1946 -0.452148 0)
(10.2337 -0.490918 0)
(10.2755 -0.532212 0)
(10.3201 -0.576309 0)
(10.3674 -0.62351 0)
(10.4172 -0.674143 0)
(10.4694 -0.728553 0)
(10.5237 -0.787097 0)
(10.5799 -0.850124 0)
(10.6373 -0.917959 0)
(10.6956 -0.990862 0)
(10.7539 -1.06899 0)
(10.8116 -1.15236 0)
(10.8677 -1.24076 0)
(10.9214 -1.33373 0)
(10.972 -1.43054 0)
(10.0018 0.086695 0)
(10.0255 0.26222 0)
(10.0754 0.435588 0)
(10.1503 0.601777 0)
(10.246 0.756906 0)
(10.3584 0.898237 0)
(10.4834 1.02396 0)
(10.6164 1.13308 0)
(10.7532 1.22533 0)
(10.8897 1.30097 0)
(11.0225 1.36071 0)
(11.1486 1.40555 0)
(11.2657 1.43671 0)
(11.3721 1.45555 0)
(11.4667 1.46347 0)
(11.5488 1.46188 0)
(11.6183 1.45213 0)
(11.6753 1.4355 0)
(11.7203 1.41316 0)
(11.7537 1.38616 0)
(11.7765 1.35545 0)
(11.7895 1.32183 0)
(11.7934 1.28602 0)
(11.7893 1.24861 0)
(11.778 1.21012 0)
(11.7603 1.17096 0)
(11.7371 1.13149 0)
(11.709 1.09199 0)
(11.6768 1.05269 0)
(11.6412 1.01378 0)
(11.6026 0.975392 0)
(11.5616 0.93765 0)
(11.5188 0.900631 0)
(11.4745 0.864395 0)
(11.4291 0.828982 0)
(11.3829 0.794416 0)
(11.3363 0.76071 0)
(11.2895 0.727863 0)
(11.2427 0.695868 0)
(11.1963 0.664709 0)
(11.1503 0.634368 0)
(11.1049 0.604817 0)
(11.0604 0.576031 0)
(11.0167 0.547976 0)
(10.974 0.520621 0)
(10.9325 0.49393 0)
(10.8922 0.467868 0)
(10.8531 0.442398 0)
(10.8154 0.417482 0)
(10.7791 0.393082 0)
(10.7443 0.36916 0)
(10.711 0.345678 0)
(10.6792 0.322597 0)
(10.6491 0.299878 0)
(10.6205 0.277481 0)
(10.5937 0.255368 0)
(10.5685 0.233498 0)
(10.545 0.211833 0)
(10.5232 0.19033 0)
(10.5032 0.168949 0)
(10.485 0.147649 0)
(10.4686 0.126385 0)
(10.454 0.105116 0)
(10.4413 0.0837943 0)
(10.4305 0.0623747 0)
(10.4215 0.0408084 0)
(10.4145 0.0190449 0)
(10.4094 -0.00297001 0)
(10.4062 -0.0252929 0)
(10.4051 -0.0479823 0)
(10.406 -0.0711004 0)
(10.409 -0.0947133 0)
(10.414 -0.118891 0)
(10.4212 -0.14371 0)
(10.4305 -0.169249 0)
(10.442 -0.195598 0)
(10.4558 -0.22285 0)
(10.4718 -0.251108 0)
(10.4901 -0.280483 0)
(10.5107 -0.311099 0)
(10.5337 -0.343087 0)
(10.5591 -0.376595 0)
(10.5869 -0.411783 0)
(10.6171 -0.448826 0)
(10.6497 -0.487916 0)
(10.6847 -0.529264 0)
(10.7221 -0.573097 0)
(10.7618 -0.619662 0)
(10.8036 -0.669221 0)
(10.8475 -0.722048 0)
(10.8933 -0.778427 0)
(10.9407 -0.838636 0)
(10.9893 -0.902939 0)
(11.0387 -0.971563 0)
(11.0884 -1.04467 0)
(11.1379 -1.12233 0)
(11.1864 -1.2045 0)
(11.2333 -1.29094 0)
(11.278 -1.38127 0)
(11.3198 -1.4749 0)
(10.0015 0.075591 0)
(10.0206 0.228353 0)
(10.061 0.379536 0)
(10.1218 0.525434 0)
(10.2002 0.663075 0)
(10.2935 0.790261 0)
(10.3987 0.905456 0)
(10.5127 1.00773 0)
(10.6323 1.09667 0)
(10.7544 1.17229 0)
(10.8764 1.23492 0)
(10.9956 1.28514 0)
(11.1101 1.32371 0)
(11.2181 1.35149 0)
(11.3182 1.36946 0)
(11.4096 1.3786 0)
(11.4915 1.37989 0)
(11.5637 1.37433 0)
(11.6261 1.36282 0)
(11.6788 1.34624 0)
(11.7221 1.32538 0)
(11.7565 1.30097 0)
(11.7825 1.27365 0)
(11.8007 1.24399 0)
(11.8116 1.21251 0)
(11.8159 1.17963 0)
(11.8143 1.14573 0)
(11.8073 1.11114 0)
(11.7955 1.07611 0)
(11.7794 1.04089 0)
(11.7597 1.00565 0)
(11.7368 0.970552 0)
(11.7111 0.935723 0)
(11.6831 0.901262 0)
(11.6532 0.867249 0)
(11.6216 0.833745 0)
(11.5889 0.800794 0)
(11.5551 0.768428 0)
(11.5206 0.736668 0)
(11.4857 0.705524 0)
(11.4505 0.675 0)
(11.4153 0.645093 0)
(11.3802 0.615791 0)
(11.3454 0.587083 0)
(11.3111 0.55895 0)
(11.2773 0.53137 0)
(11.2441 0.50432 0)
(11.2118 0.477774 0)
(11.1804 0.451704 0)
(11.1499 0.42608 0)
(11.1205 0.400872 0)
(11.0921 0.376046 0)
(11.065 0.351571 0)
(11.0391 0.327412 0)