/*--------------------------------*- C++ -*----------------------------------*\
| =========                 |                                                 |
| \\      /  F ield         | OpenFOAM: The Open Source CFD Toolbox           |
|  \\    /   O peration     | Version:  2406                                  |
|   \\  /    A nd           | Website:  www.openfoam.com                      |
|    \\/     M anipulation  |                                                 |
\*---------------------------------------------------------------------------*/
FoamFile
{
    version     2.0;
    format      ascii;
    arch        "LSB;label=32;scalar=64";
    class       volVectorField;
    location    "50";
    object      U;
}
// * * * * * * * * * * * * * * * * * * * * * * * * * * * * * * * * * * * * * //

dimensions      [0 1 -1 0 0 0 0];

internalField   nonuniform List<vector> 
1500
(
(9.35595 0.345668 0)
(8.58599 0.649365 0)
(7.77362 0.631675 0)
(6.88567 0.487378 0)
(6.13666 0.328821 0)
(5.5983 0.191962 0)
(5.23247 0.0838307 0)
(5.00232 -0.000161243 0)
(4.91201 -0.0702059 0)
(4.86837 -0.281847 0)
(10.218 0.490448 0)
(10.7266 0.994224 0)
(11.0323 1.10506 0)
(11.0934 1.04161 0)
(11.0153 0.906196 0)
(10.885 0.732966 0)
(10.7437 0.543296 0)
(10.6155 0.349497 0)
(10.5241 0.153353 0)
(10.4532 -0.0778465 0)
(10.0252 0.191185 0)
(10.2642 0.440623 0)
(10.6375 0.551967 0)
(11.0183 0.585846 0)
(11.3449 0.566708 0)
(11.6069 0.497246 0)
(11.8081 0.386356 0)
(11.9553 0.245626 0)
(12.0565 0.0820272 0)
(12.1107 -0.109101 0)
(10.0104 0.0705219 0)
(10.1295 0.189642 0)
(10.3645 0.25451 0)
(10.6575 0.271691 0)
(10.9575 0.255048 0)
(11.244 0.209214 0)
(11.507 0.136981 0)
(11.7366 0.0423917 0)
(11.9244 -0.0707053 0)
(12.0677 -0.19929 0)
(10.0106 0.013637 0)
(10.1068 0.0384263 0)
(10.2941 0.0452552 0)
(10.5364 0.0311276 0)
(10.7934 0.000942696 0)
(11.0469 -0.0425547 0)
(11.2888 -0.0987384 0)
(11.5108 -0.167012 0)
(11.7049 -0.246431 0)
(11.8655 -0.335141 0)
(10.0105 -0.0366754 0)
(10.1053 -0.108842 0)
(10.2901 -0.167111 0)
(10.529 -0.211341 0)
(10.7825 -0.24936 0)
(11.033 -0.286672 0)
(11.2728 -0.326475 0)
(11.4943 -0.371438 0)
(11.6896 -0.423127 0)
(11.8544 -0.481061 0)
(10.0098 -0.0921861 0)
(10.1252 -0.255973 0)
(10.3546 -0.370136 0)
(10.6416 -0.444855 0)
(10.9355 -0.497038 0)
(11.2156 -0.533732 0)
(11.4701 -0.560035 0)
(11.6887 -0.582372 0)
(11.8642 -0.605539 0)
(11.9947 -0.631215 0)
(10.0247 -0.211498 0)
(10.2619 -0.504694 0)
(10.6308 -0.66631 0)
(11.0005 -0.758322 0)
(11.3045 -0.805541 0)
(11.5276 -0.812018 0)
(11.6693 -0.789732 0)
(11.7347 -0.755392 0)
(11.7337 -0.72082 0)
(11.6774 -0.691275 0)
(10.2196 -0.508944 0)
(10.7216 -1.04809 0)
(11.0008 -1.19458 0)
(11.0089 -1.16749 0)
(10.8473 -1.06991 0)
(10.5997 -0.938752 0)
(10.3029 -0.800014 0)
(9.97779 -0.673506 0)
(9.64145 -0.568544 0)
(9.30505 -0.486412 0)
(9.35045 -0.35432 0)
(8.55142 -0.671747 0)
(7.68516 -0.663906 0)
(6.71959 -0.526577 0)
(5.87271 -0.374483 0)
(5.21525 -0.246533 0)
(4.70239 -0.15259 0)
(4.29043 -0.0913884 0)
(3.95714 -0.0556397 0)
(3.68458 -0.0367289 0)
(0.000521527 -0.0007324 0)
(-0.0125921 0.00299518 0)
(-0.0395138 0.0054713 0)
(-0.0737787 0.00631034 0)
(-0.110294 0.00659064 0)
(-0.147293 0.00678855 0)
(-0.184402 0.00703176 0)
(-0.221583 0.00731278 0)
(-0.258804 0.00759707 0)
(-0.295993 0.00785525 0)
(-0.333044 0.00806739 0)
(-0.369834 0.00821643 0)
(-0.406234 0.00830861 0)
(-0.442121 0.00835536 0)
(-0.477371 0.00836612 0)
(-0.511851 0.00835424 0)
(-0.545419 0.00832885 0)
(-0.577912 0.0082881 0)
(-0.609133 0.00822936 0)
(-0.638854 0.00814274 0)
(-0.666807 0.00802197 0)
(-0.692688 0.00785539 0)
(-0.71616 0.00762641 0)
(-0.736854 0.00731627 0)
(-0.754377 0.00691031 0)
(-0.768314 0.00639391 0)
(-0.778232 0.00575649 0)
(-0.783694 0.00499431 0)
(-0.784273 0.00410436 0)
(-0.779558 0.0030827 0)
(-0.76921 0.00191841 0)
(-0.752951 0.000620881 0)
(-0.730606 -0.000792208 0)
(-0.70211 -0.00228376 0)
(-0.667515 -0.00382102 0)
(-0.626988 -0.0053699 0)
(-0.580804 -0.00689748 0)
(-0.529357 -0.00834397 0)
(-0.473163 -0.00965177 0)
(-0.41284 -0.0107916 0)
(-0.349074 -0.0117594 0)
(-0.28258 -0.0125351 0)
(-0.214106 -0.0130973 0)
(-0.144431 -0.0134526 0)
(-0.0743258 -0.0136138 0)
(-0.00449415 -0.0135754 0)
(0.0644595 -0.013338 0)
(0.131963 -0.0129379 0)
(0.197464 -0.0124114 0)
(0.260491 -0.0117816 0)
(0.320664 -0.0110719 0)
(0.377685 -0.0103062 0)
(0.431332 -0.00950691 0)
(0.481463 -0.00869466 0)
(0.528008 -0.00788787 0)
(0.570965 -0.00710259 0)
(0.610392 -0.00635239 0)
(0.646401 -0.00564844 0)
(0.679149 -0.00499969 0)
(0.708834 -0.0044129 0)
(0.735686 -0.00389287 0)
(0.759959 -0.00344245 0)
(0.781928 -0.00306373 0)
(0.801883 -0.0027589 0)
(0.820124 -0.0025314 0)
(0.836975 -0.00239281 0)
(0.852724 -0.00234912 0)
(0.867902 -0.00250307 0)
(0.882796 -0.00245093 0)
(0.903241 -0.00564526 0)
(-0.0052734 0.0139091 0)
(-0.0535524 0.0442132 0)
(-0.128962 0.063138 0)
(-0.218093 0.0710954 0)
(-0.31075 0.0735905 0)
(-0.403244 0.0740937 0)
(-0.494363 0.0740308 0)
(-0.583653 0.0738015 0)
(-0.670861 0.0734345 0)
(-0.755765 0.0728914 0)
(-0.838125 0.0721413 0)
(-0.917706 0.0711741 0)
(-0.994267 0.0699841 0)
(-1.06755 0.0685636 0)
(-1.13729 0.0668972 0)
(-1.20317 0.0649587 0)
(-1.26484 0.0627068 0)
(-1.32191 0.060091 0)
(-1.37392 0.0570445 0)
(-1.42033 0.0535017 0)
(-1.46056 0.0493945 0)
(-1.49398 0.044664 0)
(-1.51995 0.0392532 0)
(-1.53778 0.0331215 0)
(-1.54681 0.0262323 0)
(-1.54641 0.0185627 0)
(-1.53595 0.0101223 0)
(-1.5149 0.000942913 0)
(-1.48286 -0.00893344 0)
(-1.43953 -0.0194165 0)
(-1.38469 -0.0303681 0)
(-1.31836 -0.0416209 0)
(-1.24068 -0.052974 0)
(-1.15203 -0.0642151 0)
(-1.05297 -0.0751448 0)
(-0.944184 -0.0855695 0)
(-0.826515 -0.0952885 0)
(-0.700901 -0.104124 0)
(-0.568406 -0.111924 0)
(-0.430228 -0.118517 0)
(-0.287655 -0.123783 0)
(-0.141953 -0.127709 0)
(0.00556879 -0.130291 0)
(0.153839 -0.131552 0)
(0.301972 -0.131586 0)
(0.448924 -0.130468 0)
(0.593679 -0.128235 0)
(0.735324 -0.124978 0)
(0.873027 -0.120844 0)
(1.00605 -0.115962 0)
(1.13377 -0.110467 0)
(1.25566 -0.104498 0)
(1.37133 -0.0981917 0)
(1.48049 -0.0916791 0)
(1.58295 -0.0850849 0)
(1.67866 -0.0785241 0)
(1.76763 -0.0721005 0)
(1.84998 -0.0659064 0)
(1.92593 -0.0600215 0)
(1.99576 -0.0545136 0)
(2.05981 -0.0494384 0)
(2.11849 -0.0448406 0)
(2.17226 -0.0407546 0)
(2.2216 -0.0372104 0)
(2.26705 -0.0342316 0)
(2.30919 -0.031861 0)
(2.34843 -0.0300971 0)
(2.38593 -0.0292406 0)
(2.41952 -0.0285123 0)
(2.4653 -0.0333824 0)
(-0.0118456 0.0531677 0)
(-0.0964088 0.128193 0)
(-0.213982 0.168597 0)
(-0.345114 0.184216 0)
(-0.476612 0.187647 0)
(-0.604269 0.186254 0)
(-0.726614 0.183167 0)
(-0.843032 0.179394 0)
(-0.953208 0.175146 0)
(-1.05693 0.170425 0)
(-1.15402 0.165218 0)
(-1.24429 0.159513 0)
(-1.32753 0.153303 0)
(-1.40354 0.146566 0)
(-1.47204 0.139257 0)
(-1.53274 0.131306 0)
(-1.58527 0.122625 0)
(-1.62922 0.113097 0)
(-1.66411 0.102598 0)
(-1.68942 0.0910031 0)
(-1.70459 0.078201 0)
(-1.70905 0.0641011 0)
(-1.70225 0.0486435 0)
(-1.68367 0.0318085 0)
(-1.65281 0.0136384 0)
(-1.60937 -0.00581283 0)
(-1.55316 -0.0264693 0)
(-1.48404 -0.0482009 0)
(-1.40195 -0.0708289 0)
(-1.30702 -0.0941159 0)
(-1.19947 -0.117743 0)
(-1.07973 -0.141348 0)
(-0.948374 -0.164558 0)
(-0.806194 -0.186978 0)
(-0.654128 -0.208225 0)
(-0.493235 -0.227967 0)
(-0.324648 -0.245909 0)
(-0.149578 -0.261769 0)
(0.0304027 -0.27523 0)
(0.214035 -0.286128 0)
(0.400452 -0.294499 0)
(0.588503 -0.300351 0)
(0.777005 -0.303701 0)
(0.964814 -0.304641 0)
(1.1508 -0.303296 0)
(1.33387 -0.299776 0)
(1.51307 -0.294207 0)
(1.68753 -0.286762 0)
(1.85649 -0.277651 0)
(2.01929 -0.267102 0)
(2.17539 -0.255359 0)
(2.32433 -0.242671 0)
(2.4658 -0.229287 0)
(2.59957 -0.21545 0)
(2.72553 -0.201394 0)
(2.84364 -0.187336 0)
(2.95399 -0.17348 0)
(3.05673 -0.160009 0)
(3.15209 -0.147087 0)
(3.24039 -0.134857 0)
(3.32199 -0.123443 0)
(3.39733 -0.11295 0)
(3.46689 -0.103464 0)
(3.53119 -0.0950606 0)
(3.59078 -0.0878 0)
(3.64631 -0.0817548 0)
(3.69811 -0.0769287 0)
(3.74787 -0.0736055 0)
(3.79105 -0.0709606 0)
(3.8518 -0.0728111 0)
(-0.018018 0.116019 0)
(-0.13387 0.249875 0)
(-0.282193 0.311563 0)
(-0.438038 0.330537 0)
(-0.586684 0.329743 0)
(-0.724637 0.321158 0)
(-0.851018 0.309782 0)
(-0.965667 0.297325 0)
(-1.06871 0.284242 0)
(-1.16033 0.270602 0)
(-1.24069 0.256402 0)
(-1.30993 0.241615 0)
(-1.36812 0.226192 0)
(-1.41527 0.21006 0)
(-1.45131 0.193119 0)
(-1.47613 0.175237 0)
(-1.48955 0.156269 0)
(-1.49133 0.136053 0)
(-1.48122 0.114419 0)
(-1.45891 0.0912058 0)
(-1.42414 0.0662951 0)
(-1.37662 0.0396339 0)
(-1.31608 0.0112652 0)
(-1.24256 -0.0187311 0)
(-1.15611 -0.0502365 0)
(-1.05686 -0.0830775 0)
(-0.944967 -0.117058 0)
(-0.820704 -0.15197 0)
(-0.684486 -0.187508 0)
(-0.536856 -0.223269 0)
(-0.378492 -0.258782 0)
(-0.210217 -0.293526 0)
(-0.0330863 -0.32693 0)
(0.151596 -0.358427 0)
(0.342813 -0.387634 0)
(0.539603 -0.414224 0)
(0.740812 -0.437821 0)
(0.945321 -0.458081 0)
(1.15203 -0.474775 0)
(1.35984 -0.487844 0)
(1.5676 -0.497272 0)
(1.77415 -0.503033 0)
(1.97844 -0.505159 0)
(2.17945 -0.50376 0)
(2.37626 -0.499013 0)
(2.56801 -0.491129 0)
(2.75398 -0.480356 0)
(2.93351 -0.466977 0)
(3.10607 -0.451308 0)
(3.27124 -0.433687 0)
(3.42868 -0.414463 0)
(3.57816 -0.393992 0)
(3.71955 -0.372623 0)
(3.85279 -0.350698 0)
(3.97793 -0.328541 0)
(4.09508 -0.306457 0)
(4.20442 -0.284731 0)
(4.3062 -0.263617 0)
(4.40074 -0.243347 0)
(4.48839 -0.224125 0)
(4.56956 -0.206128 0)
(4.64469 -0.18951 0)
(4.71427 -0.1744 0)
(4.77881 -0.16091 0)
(4.83883 -0.149133 0)
(4.89496 -0.139158 0)
(4.94743 -0.13103 0)
(4.99819 -0.124916 0)
(5.04144 -0.120493 0)
(5.10487 -0.11853 0)
(-0.0240614 0.198599 0)
(-0.163458 0.397353 0)
(-0.325161 0.473254 0)
(-0.481829 0.486127 0)
(-0.620121 0.472394 0)
(-0.738894 0.448978 0)
(-0.838882 0.422601 0)
(-0.921144 0.395526 0)
(-0.98677 0.368321 0)
(-1.03671 0.341024 0)
(-1.07174 0.313549 0)
(-1.0925 0.285779 0)
(-1.09948 0.257565 0)
(-1.09304 0.228754 0)
(-1.07345 0.199175 0)
(-1.04087 0.168637 0)
(-0.995395 0.136963 0)
(-0.937098 0.10398 0)
(-0.86603 0.0694997 0)
(-0.782226 0.0333594 0)
(-0.685793 -0.00454166 0)
(-0.576925 -0.0441886 0)
(-0.455952 -0.0854711 0)
(-0.323109 -0.12819 0)
(-0.17876 -0.172158 0)
(-0.0233303 -0.217133 0)
(0.142593 -0.262793 0)
(0.318199 -0.308761 0)
(0.502608 -0.35461 0)
(0.694916 -0.399838 0)
(0.894133 -0.443885 0)
(1.09925 -0.486134 0)
(1.30924 -0.525987 0)
(1.52309 -0.56295 0)
(1.73977 -0.596605 0)
(1.95817 -0.626535 0)
(2.17718 -0.652349 0)
(2.39574 -0.67373 0)
(2.61284 -0.69046 0)
(2.82751 -0.702439 0)
(3.0388 -0.709657 0)
(3.2458 -0.712174 0)
(3.4477 -0.710116 0)
(3.64376 -0.703683 0)
(3.83331 -0.693138 0)
(4.0158 -0.67879 0)
(4.19076 -0.660991 0)
(4.35782 -0.640132 0)
(4.5167 -0.616628 0)
(4.66724 -0.590917 0)
(4.80933 -0.563442 0)
(4.94297 -0.534649 0)
(5.06822 -0.50497 0)
(5.18524 -0.474825 0)
(5.29422 -0.444609 0)
(5.39542 -0.414692 0)
(5.48916 -0.385412 0)
(5.5758 -0.357077 0)
(5.65572 -0.329962 0)
(5.72936 -0.304307 0)
(5.79716 -0.280323 0)
(5.8596 -0.25819 0)
(5.91716 -0.238062 0)
(5.97036 -0.220069 0)
(6.01968 -0.204322 0)
(6.06572 -0.190914 0)
(6.10866 -0.179941 0)
(6.15038 -0.171396 0)
(6.18541 -0.165727 0)
(6.23848 -0.160556 0)
(-0.0306747 0.297594 0)
(-0.184708 0.555558 0)
(-0.335019 0.629505 0)
(-0.45997 0.621937 0)
(-0.553397 0.584424 0)
(-0.618954 0.537968 0)
(-0.65996 0.490227 0)
(-0.679204 0.443549 0)
(-0.679018 0.398289 0)
(-0.661216 0.354231 0)
(-0.627207 0.311073 0)
(-0.578133 0.268473 0)
(-0.514891 0.226071 0)
(-0.438193 0.183576 0)
(-0.348583 0.140714 0)
(-0.246485 0.097201 0)
(-0.132283 0.0527827 0)
(-0.00626792 0.00720242 0)
(0.131254 -0.0397522 0)
(0.279847 -0.0881744 0)
(0.439056 -0.138025 0)
(0.608391 -0.189188 0)
(0.787253 -0.241498 0)
(0.974989 -0.29471 0)
(1.17086 -0.348539 0)
(1.37405 -0.40267 0)
(1.58364 -0.456728 0)
(1.79871 -0.510223 0)
(2.01828 -0.562619 0)
(2.24135 -0.613369 0)
(2.46687 -0.661885 0)
(2.69381 -0.707562 0)
(2.92117 -0.749809 0)
(3.14797 -0.788098 0)
(3.37327 -0.821974 0)
(3.59611 -0.85104 0)
(3.8156 -0.874963 0)
(4.03088 -0.893492 0)
(4.2412 -0.906471 0)
(4.44584 -0.913855 0)
(4.64415 -0.915693 0)
(4.83553 -0.912114 0)
(5.01949 -0.903327 0)
(5.1956 -0.889616 0)
(5.3635 -0.871329 0)
(5.52293 -0.848867 0)
(5.67371 -0.822676 0)
(5.81575 -0.793235 0)
(5.949 -0.76105 0)
(6.07354 -0.726639 0)
(6.18948 -0.690524 0)
(6.297 -0.653219 0)
(6.39633 -0.615224 0)
(6.48778 -0.577015 0)
(6.57168 -0.53904 0)
(6.64839 -0.501712 0)
(6.71832 -0.465408 0)
(6.78189 -0.430466 0)
(6.83955 -0.397185 0)
(6.89176 -0.365827 0)
(6.93899 -0.336616 0)
(6.98171 -0.309743 0)
(7.0204 -0.285368 0)
(7.05554 -0.263625 0)
(7.08758 -0.24463 0)
(7.11705 -0.228464 0)
(7.14416 -0.215271 0)
(7.17032 -0.204867 0)
(7.19192 -0.198387 0)
(7.22516 -0.191062 0)
(-0.0385419 0.414976 0)
(-0.194376 0.705077 0)
(-0.294204 0.746104 0)
(-0.340321 0.699687 0)
(-0.344245 0.628597 0)
(-0.316921 0.55359 0)
(-0.264246 0.481404 0)
(-0.190398 0.413652 0)
(-0.0985873 0.349872 0)
(0.00882426 0.289194 0)
(0.129994 0.230912 0)
(0.263612 0.174371 0)
(0.408699 0.118938 0)
(0.564304 0.0640723 0)
(0.729967 0.00929686 0)
(0.905282 -0.0457313 0)
(1.08976 -0.101265 0)
(1.28282 -0.157508 0)
(1.48378 -0.214594 0)
(1.69191 -0.272547 0)
(1.90644 -0.331266 0)
(2.12661 -0.390585 0)
(2.35159 -0.450282 0)
(2.58056 -0.510067 0)
(2.81264 -0.569589 0)
(3.04693 -0.62845 0)
(3.2825 -0.686199 0)
(3.51839 -0.742338 0)
(3.75366 -0.796341 0)
(3.98739 -0.847657 0)
(4.21865 -0.895716 0)
(4.4466 -0.939952 0)
(4.67042 -0.979824 0)
(4.88938 -1.01485 0)
(5.10276 -1.04462 0)
(5.30994 -1.06879 0)
(5.51034 -1.08708 0)
(5.70345 -1.09933 0)
(5.88884 -1.10544 0)
(6.06614 -1.10544 0)
(6.23504 -1.09944 0)
(6.39529 -1.08764 0)
(6.54672 -1.07034 0)
(6.68922 -1.04788 0)
(6.82272 -1.02069 0)
(6.94726 -0.989248 0)
(7.06289 -0.954069 0)
(7.16977 -0.915702 0)
(7.26808 -0.874717 0)
(7.35807 -0.831692 0)
(7.44002 -0.787204 0)
(7.51427 -0.741816 0)
(7.58118 -0.696068 0)
(7.64114 -0.650475 0)
(7.69456 -0.605513 0)
(7.74188 -0.56162 0)
(7.78353 -0.51919 0)
(7.81997 -0.478576 0)
(7.85163 -0.440083 0)
(7.87897 -0.403978 0)
(7.90243 -0.370484 0)
(7.92243 -0.33979 0)
(7.9394 -0.312051 0)
(7.95375 -0.287391 0)
(7.96587 -0.26592 0)
(7.97616 -0.247698 0)
(7.9849 -0.232895 0)
(7.99272 -0.221198 0)
(7.99885 -0.214142 0)
(8.00781 -0.205649 0)
(-0.0491312 0.563214 0)
(-0.165341 0.813902 0)
(-0.138362 0.768988 0)
(-0.0309445 0.667301 0)
(0.113629 0.56075 0)
(0.279144 0.458737 0)
(0.460484 0.365073 0)
(0.654178 0.280172 0)
(0.857468 0.202193 0)
(1.06862 0.129224 0)
(1.28625 0.0598167 0)
(1.51001 -0.00700591 0)
(1.73923 -0.0719692 0)
(1.97336 -0.135673 0)
(2.21169 -0.198601 0)
(2.4535 -0.261086 0)
(2.69813 -0.323342 0)
(2.9449 -0.385506 0)
(3.19315 -0.447644 0)
(3.44217 -0.509754 0)
(3.69124 -0.571753 0)
(3.93964 -0.633484 0)
(4.18667 -0.694717 0)
(4.43159 -0.755154 0)
(4.67368 -0.814438 0)
(4.91224 -0.87217 0)
(5.14655 -0.927906 0)
(5.37592 -0.981168 0)
(5.5997 -1.03145 0)
(5.81727 -1.07825 0)
(6.02805 -1.12103 0)
(6.23154 -1.15929 0)
(6.42727 -1.19258 0)
(6.61488 -1.22046 0)
(6.79402 -1.2426 0)
(6.96444 -1.25871 0)
(7.12591 -1.26859 0)
(7.27829 -1.27213 0)
(7.42147 -1.26932 0)
(7.55541 -1.26024 0)
(7.68009 -1.24506 0)
(7.79558 -1.22403 0)
(7.90196 -1.1975 0)
(7.99937 -1.16588 0)
(8.08801 -1.12965 0)
(8.16812 -1.08933 0)
(8.23997 -1.04549 0)
(8.30388 -0.998732 0)
(8.36023 -0.949662 0)
(8.40939 -0.898897 0)
(8.4518 -0.847043 0)
(8.48787 -0.794691 0)
(8.51807 -0.742402 0)
(8.54285 -0.690703 0)
(8.56265 -0.640078 0)
(8.57793 -0.59097 0)
(8.58913 -0.54377 0)
(8.59666 -0.498824 0)
(8.60094 -0.456431 0)
(8.60235 -0.416845 0)
(8.60125 -0.380275 0)
(8.59801 -0.346895 0)
(8.59293 -0.316844 0)
(8.58633 -0.290228 0)
(8.57849 -0.267139 0)
(8.56964 -0.247616 0)
(8.56013 -0.231817 0)
(8.5497 -0.219381 0)
(8.54063 -0.211898 0)
(8.52515 -0.203094 0)
(-0.00817476 0.658663 0)
(0.067505 0.775971 0)
(0.371332 0.60763 0)
(0.734435 0.456624 0)
(1.08692 0.331127 0)
(1.42432 0.217519 0)
(1.75263 0.114379 0)
(2.0743 0.0223132 0)
(2.38937 -0.0607705 0)
(2.69828 -0.137456 0)
(3.00177 -0.209484 0)
(3.29975 -0.278021 0)
(3.59212 -0.343916 0)
(3.87887 -0.407859 0)
(4.15997 -0.470378 0)
(4.43542 -0.531845 0)
(4.70512 -0.592501 0)
(4.96892 -0.65249 0)
(5.22665 -0.71188 0)
(5.47805 -0.770663 0)
(5.72287 -0.828754 0)
(5.96083 -0.885996 0)
(6.19165 -0.942168 0)
(6.41502 -0.996987 0)
(6.63065 -1.05012 0)
(6.83824 -1.10117 0)
(7.03753 -1.14974 0)
(7.22823 -1.19537 0)
(7.41012 -1.23759 0)
(7.58296 -1.27595 0)
(7.74659 -1.30996 0)
(7.90086 -1.33918 0)
(8.04566 -1.36321 0)
(8.18094 -1.38168 0)
(8.30665 -1.39428 0)
(8.42282 -1.4008 0)
(8.52948 -1.40107 0)
(8.62671 -1.39503 0)
(8.71464 -1.38271 0)
(8.79341 -1.36423 0)
(8.86321 -1.33979 0)
(8.92429 -1.3097 0)
(8.97692 -1.27434 0)
(9.02143 -1.23415 0)
(9.05818 -1.18966 0)
(9.08757 -1.14144 0)
(9.11005 -1.09008 0)
(9.1261 -1.03621 0)
(9.13622 -0.980483 0)
(9.14091 -0.923519 0)
(9.1407 -0.865943 0)
(9.13611 -0.808348 0)
(9.12763 -0.751294 0)
(9.11576 -0.695299 0)
(9.10096 -0.640835 0)
(9.08366 -0.588322 0)
(9.06426 -0.538131 0)
(9.04312 -0.490584 0)
(9.02058 -0.445953 0)
(8.99693 -0.404462 0)
(8.97242 -0.366296 0)
(8.94728 -0.331601 0)
(8.92172 -0.300488 0)
(8.89588 -0.273039 0)
(8.86992 -0.249321 0)
(8.84389 -0.229347 0)
(8.81816 -0.213237 0)
(8.79161 -0.200657 0)
(8.76927 -0.192934 0)
(8.73242 -0.184623 0)
(0.830545 0.191009 0)
(1.36257 0.221868 0)
(1.97689 0.0903651 0)
(2.58699 -0.0311426 0)
(3.11321 -0.125056 0)
(3.5715 -0.208238 0)
(3.98828 -0.285769 0)
(4.37433 -0.357151 0)
(4.73377 -0.422738 0)
(5.07016 -0.48393 0)
(5.38689 -0.541947 0)
(5.6865 -0.597571 0)
(5.97072 -0.651388 0)
(6.24085 -0.703896 0)
(6.49796 -0.755493 0)
(6.74296 -0.806455 0)
(6.97655 -0.856944 0)
(7.19927 -0.907024 0)
(7.41153 -0.956686 0)
(7.61367 -1.00585 0)
(7.80592 -1.05439 0)
(7.98845 -1.10209 0)
(8.16142 -1.14872 0)
(8.32493 -1.19396 0)
(8.47904 -1.23747 0)
(8.6238 -1.27887 0)
(8.75925 -1.31773 0)
(8.88539 -1.35361 0)
(9.00224 -1.38607 0)
(9.10979 -1.41463 0)
(9.20805 -1.43886 0)
(9.29702 -1.45833 0)
(9.37672 -1.47265 0)
(9.44719 -1.48147 0)
(9.50849 -1.48452 0)
(9.5607 -1.48159 0)
(9.60394 -1.47256 0)
(9.63836 -1.45738 0)
(9.66417 -1.43611 0)
(9.68161 -1.40892 0)
(9.69101 -1.37606 0)
(9.69273 -1.33787 0)
(9.68721 -1.29478 0)
(9.67492 -1.24729 0)
(9.6564 -1.19595 0)
(9.63224 -1.14138 0)
(9.60304 -1.08421 0)
(9.56944 -1.02509 0)
(9.53206 -0.964662 0)
(9.49154 -0.903573 0)
(9.44848 -0.842429 0)
(9.40347 -0.781806 0)
(9.35704 -0.722236 0)
(9.30967 -0.664202 0)
(9.2618 -0.608136 0)
(9.21382 -0.554416 0)
(9.16605 -0.503368 0)
(9.11876 -0.455267 0)
(9.07215 -0.410343 0)
(9.0264 -0.368776 0)
(8.98162 -0.330713 0)
(8.93789 -0.29626 0)
(8.89524 -0.265497 0)
(8.85368 -0.238474 0)
(8.8132 -0.215224 0)
(8.77364 -0.195744 0)
(8.73535 -0.180085 0)
(8.69655 -0.168011 0)
(8.6642 -0.160342 0)
(8.61161 -0.153311 0)
(5.29749 -0.5933 0)
(5.55649 -0.642293 0)
(5.86618 -0.639735 0)
(6.23387 -0.64322 0)
(6.58505 -0.65482 0)
(6.90004 -0.673514 0)
(7.18773 -0.698574 0)
(7.45412 -0.72801 0)
(7.70066 -0.759936 0)
(7.92881 -0.793326 0)
(8.14069 -0.827734 0)
(8.33821 -0.862944 0)
(8.52276 -0.898841 0)
(8.6954 -0.935375 0)
(8.85703 -0.972516 0)
(9.00845 -1.01022 0)
(9.15029 -1.04841 0)
(9.28307 -1.08697 0)
(9.40719 -1.12574 0)
(9.52295 -1.16451 0)
(9.63058 -1.20305 0)
(9.73026 -1.24108 0)
(9.82208 -1.27829 0)
(9.90613 -1.31431 0)
(9.98241 -1.34876 0)
(10.0509 -1.38119 0)
(10.1116 -1.41117 0)
(10.1643 -1.43823 0)
(10.209 -1.46188 0)
(10.2456 -1.48166 0)
(10.2739 -1.49711 0)
(10.2938 -1.5078 0)
(10.3052 -1.51335 0)
(10.3082 -1.51343 0)
(10.3025 -1.50779 0)
(10.2885 -1.49626 0)
(10.2661 -1.47875 0)
(10.2356 -1.4553 0)
(10.1972 -1.42602 0)
(10.1515 -1.39114 0)
(10.0989 -1.35099 0)
(10.0399 -1.30598 0)
(9.97518 -1.25662 0)
(9.90552 -1.20345 0)
(9.83164 -1.1471 0)
(9.75435 -1.0882 0)
(9.67445 -1.0274 0)
(9.59272 -0.965353 0)
(9.50994 -0.902704 0)
(9.42682 -0.840055 0)
(9.34402 -0.777977 0)
(9.26215 -0.716992 0)
(9.18171 -0.657573 0)
(9.10315 -0.600136 0)
(9.02682 -0.545045 0)
(8.95299 -0.492611 0)
(8.88186 -0.443092 0)
(8.81355 -0.396699 0)
(8.74813 -0.353601 0)
(8.68559 -0.313928 0)
(8.62587 -0.277775 0)
(8.56888 -0.245207 0)
(8.51447 -0.216265 0)
(8.46248 -0.190968 0)
(8.41272 -0.169318 0)
(8.36487 -0.151293 0)
(8.31915 -0.13688 0)
(8.27343 -0.125972 0)
(8.23547 -0.118755 0)
(8.17469 -0.113707 0)
(10.3632 -0.345798 0)
(10.2365 -0.526334 0)
(10.1534 -0.630355 0)
(10.1371 -0.70118 0)
(10.1578 -0.755209 0)
(10.1944 -0.796999 0)
(10.2416 -0.831273 0)
(10.2965 -0.862033 0)
(10.3556 -0.891288 0)
(10.4157 -0.919895 0)
(10.4754 -0.948384 0)
(10.5337 -0.977161 0)
(10.59 -1.00649 0)
(10.6438 -1.03649 0)
(10.6946 -1.06723 0)
(10.7421 -1.09865 0)
(10.7861 -1.13068 0)
(10.8265 -1.16317 0)
(10.8628 -1.19594 0)
(10.8949 -1.22875 0)
(10.9225 -1.26132 0)
(10.9452 -1.29333 0)
(10.9628 -1.32443 0)
(10.9748 -1.3542 0)
(10.9809 -1.38221 0)
(10.9806 -1.40802 0)
(10.9737 -1.43113 0)
(10.9596 -1.45106 0)
(10.9379 -1.46733 0)
(10.9085 -1.47946 0)
(10.8708 -1.48703 0)
(10.8248 -1.48965 0)
(10.7702 -1.48698 0)
(10.7071 -1.47876 0)
(10.6355 -1.46483 0)
(10.5555 -1.44511 0)
(10.4677 -1.41964 0)
(10.3723 -1.38855 0)
(10.2701 -1.35208 0)
(10.1616 -1.31057 0)
(10.0479 -1.26446 0)
(9.92972 -1.21424 0)
(9.80807 -1.16049 0)
(9.68397 -1.10381 0)
(9.55844 -1.04485 0)
(9.43247 -0.984239 0)
(9.30703 -0.922621 0)
(9.18301 -0.860607 0)
(9.06123 -0.798775 0)
(8.94243 -0.737659 0)
(8.82722 -0.677743 0)
(8.71613 -0.61946 0)
(8.60955 -0.563183 0)
(8.5078 -0.509236 0)
(8.41105 -0.457887 0)
(8.31942 -0.409358 0)
(8.23291 -0.363823 0)
(8.15145 -0.321422 0)
(8.07491 -0.282254 0)
(8.0031 -0.246391 0)
(7.93576 -0.21388 0)
(7.87262 -0.184744 0)
(7.81335 -0.158992 0)
(7.75761 -0.136613 0)
(7.70507 -0.117586 0)
(7.65523 -0.101883 0)
(7.6082 -0.0894296 0)
(7.56174 -0.0802633 0)
(7.52328 -0.0739505 0)
(7.46279 -0.0713552 0)
(12.1082 -0.309318 0)
(12.0559 -0.463292 0)
(11.9899 -0.566806 0)
(11.9351 -0.643706 0)
(11.8919 -0.706827 0)
(11.855 -0.759301 0)
(11.8237 -0.80373 0)
(11.7985 -0.843087 0)
(11.7785 -0.879298 0)
(11.7626 -0.913362 0)
(11.7495 -0.94596 0)
(11.7385 -0.977673 0)
(11.7287 -1.00894 0)
(11.7193 -1.04003 0)
(11.7096 -1.07107 0)
(11.6991 -1.10212 0)
(11.6869 -1.13312 0)
(11.6724 -1.16397 0)
(11.655 -1.1945 0)
(11.6339 -1.22448 0)
(11.6085 -1.25363 0)
(11.5781 -1.28163 0)
(11.5419 -1.30809 0)
(11.4993 -1.33262 0)
(11.4497 -1.35478 0)
(11.3925 -1.37412 0)
(11.3271 -1.3902 0)
(11.2531 -1.40257 0)
(11.1701 -1.41081 0)
(11.0778 -1.41454 0)
(10.9761 -1.41342 0)
(10.865 -1.40718 0)
(10.7446 -1.39562 0)
(10.6154 -1.37863 0)
(10.4777 -1.35621 0)
(10.3323 -1.32844 0)
(10.1799 -1.29551 0)
(10.0216 -1.25769 0)
(9.85826 -1.21537 0)
(9.69116 -1.16899 0)
(9.5215 -1.11906 0)
(9.35051 -1.06616 0)
(9.17944 -1.01087 0)
(9.00952 -0.953806 0)
(8.84189 -0.895563 0)
(8.67762 -0.836728 0)
(8.51767 -0.777855 0)
(8.3629 -0.719456 0)
(8.21401 -0.661997 0)
(8.07159 -0.60589 0)
(7.93607 -0.551495 0)
(7.80778 -0.499119 0)
(7.68689 -0.449015 0)
(7.57347 -0.401392 0)
(7.4675 -0.356414 0)
(7.36882 -0.314206 0)
(7.27725 -0.274861 0)
(7.19248 -0.238442 0)
(7.11419 -0.204991 0)
(7.04198 -0.174528 0)
(6.97543 -0.147059 0)
(6.91409 -0.122578 0)
(6.85749 -0.101066 0)
(6.80514 -0.082501 0)
(6.75659 -0.0668468 0)
(6.71124 -0.0540783 0)
(6.66901 -0.0440957 0)
(6.6279 -0.0370428 0)
(6.59396 -0.0320497 0)
(6.54173 -0.0319901 0)
(12.1607 -0.332606 0)
(12.2063 -0.449166 0)
(12.2222 -0.54067 0)
(12.2266 -0.61419 0)
(12.2265 -0.676678 0)
(12.2221 -0.730582 0)
(12.2143 -0.777346 0)
(12.2045 -0.818838 0)
(12.1934 -0.856682 0)
(12.1807 -0.891929 0)
(12.1661 -0.925284 0)
(12.149 -0.957272 0)
(12.129 -0.988265 0)
(12.1054 -1.01847 0)
(12.0778 -1.04798 0)
(12.0453 -1.07678 0)
(12.0073 -1.10481 0)
(11.9631 -1.13192 0)
(11.9119 -1.15795 0)
(11.8532 -1.18265 0)
(11.7861 -1.20574 0)
(11.7102 -1.22692 0)
(11.6248 -1.24584 0)
(11.5295 -1.26214 0)
(11.4238 -1.27545 0)
(11.3075 -1.28542 0)
(11.1805 -1.2917 0)
(11.0426 -1.29396 0)
(10.894 -1.29193 0)
(10.735 -1.28538 0)
(10.5661 -1.27414 0)
(10.3878 -1.25813 0)
(10.2009 -1.23733 0)
(10.0064 -1.2118 0)
(9.80537 -1.18171 0)
(9.59904 -1.14729 0)
(9.38874 -1.10887 0)
(9.17585 -1.06684 0)
(8.96182 -1.02164 0)
(8.74808 -0.973761 0)
(8.53607 -0.923737 0)
(8.32712 -0.872099 0)
(8.12253 -0.819383 0)
(7.92345 -0.766107 0)
(7.73091 -0.712764 0)
(7.54581 -0.659809 0)
(7.36887 -0.607654 0)
(7.20068 -0.556663 0)
(7.04166 -0.507151 0)
(6.89209 -0.459381 0)
(6.75211 -0.413571 0)
(6.62173 -0.369895 0)
(6.50084 -0.328486 0)
(6.38925 -0.289445 0)
(6.28667 -0.252839 0)
(6.19273 -0.218714 0)
(6.10701 -0.187095 0)
(6.02904 -0.15799 0)
(5.95832 -0.131396 0)
(5.89431 -0.107301 0)
(5.83647 -0.0856867 0)
(5.78422 -0.0665305 0)
(5.73702 -0.0498073 0)
(5.69428 -0.0354895 0)
(5.65546 -0.0235427 0)
(5.61993 -0.0139502 0)
(5.58747 -0.00662279 0)
(5.55645 -0.00176451 0)
(5.53105 0.0016364 0)
(5.49293 -0.000477251 0)
(11.9891 -0.42773 0)
(12.0775 -0.514165 0)
(12.139 -0.587449 0)
(12.184 -0.648504 0)
(12.218 -0.701001 0)
(12.2424 -0.747011 0)
(12.2577 -0.78752 0)
(12.2648 -0.8236 0)
(12.264 -0.856338 0)
(12.2552 -0.886519 0)
(12.2378 -0.914627 0)
(12.2115 -0.940976 0)
(12.1757 -0.96578 0)
(12.13 -0.989159 0)
(12.0739 -1.01116 0)
(12.007 -1.03177 0)
(11.9288 -1.05093 0)
(11.839 -1.06854 0)
(11.7373 -1.08444 0)
(11.6234 -1.09848 0)
(11.4972 -1.11043 0)
(11.3586 -1.12006 0)
(11.2077 -1.12713 0)
(11.0446 -1.1314 0)
(10.8695 -1.13261 0)
(10.683 -1.13057 0)
(10.4854 -1.12506 0)
(10.2776 -1.11593 0)
(10.0602 -1.10308 0)
(9.83435 -1.08645 0)
(9.60108 -1.06603 0)
(9.36161 -1.0419 0)
(9.11729 -1.01417 0)
(8.86954 -0.983065 0)
(8.61984 -0.948825 0)
(8.36972 -0.91177 0)
(8.12071 -0.872261 0)
(7.8743 -0.830696 0)
(7.63194 -0.787496 0)
(7.39498 -0.743096 0)
(7.16466 -0.697928 0)
(6.9421 -0.652411 0)
(6.72827 -0.606944 0)
(6.52397 -0.561893 0)
(6.32985 -0.517587 0)
(6.14638 -0.474315 0)
(5.97391 -0.432323 0)
(5.8126 -0.391815 0)
(5.66249 -0.352956 0)
(5.52351 -0.315872 0)
(5.39546 -0.280657 0)
(5.27805 -0.247375 0)
(5.17093 -0.216066 0)
(5.07366 -0.186752 0)
(4.98575 -0.159435 0)
(4.9067 -0.13411 0)
(4.83593 -0.110761 0)
(4.77289 -0.0893677 0)
(4.71697 -0.0699063 0)
(4.66759 -0.0523525 0)
(4.62415 -0.0366816 0)
(4.58605 -0.0228673 0)
(4.5527 -0.0108851 0)
(4.5235 -0.00071867 0)
(4.49791 0.00764656 0)
(4.47536 0.0142073 0)
(4.45552 0.0190189 0)
(4.4372 0.0218735 0)
(4.42263 0.0236285 0)
(4.40124 0.0201144 0)
(11.9865 -0.542233 0)
(12.0868 -0.601385 0)
(12.1591 -0.654024 0)
(12.2085 -0.699195 0)
(12.2386 -0.738131 0)
(12.2511 -0.77187 0)
(12.2465 -0.800902 0)
(12.2256 -0.825743 0)
(12.1889 -0.847048 0)
(12.1366 -0.865396 0)
(12.0691 -0.881211 0)
(11.9864 -0.894808 0)
(11.8887 -0.906437 0)
(11.7764 -0.916294 0)
(11.6496 -0.924512 0)
(11.5087 -0.931169 0)
(11.354 -0.936291 0)
(11.186 -0.939862 0)
(11.005 -0.941825 0)
(10.8116 -0.942091 0)
(10.6063 -0.940546 0)
(10.3898 -0.937063 0)
(10.1629 -0.931506 0)
(9.92618 -0.923748 0)
(9.68072 -0.913671 0)
(9.42746 -0.90118 0)
(9.16747 -0.886207 0)
(8.90191 -0.868721 0)
(8.63204 -0.848726 0)
(8.35917 -0.826272 0)
(8.08466 -0.801454 0)
(7.80994 -0.77441 0)
(7.53642 -0.745321 0)
(7.26554 -0.71441 0)
(6.99868 -0.681931 0)
(6.73717 -0.648165 0)
(6.48228 -0.613411 0)
(6.23516 -0.577978 0)
(5.99684 -0.542173 0)
(5.76821 -0.506294 0)
(5.55002 -0.470624 0)
(5.34288 -0.435422 0)
(5.14723 -0.400918 0)
(4.96336 -0.367313 0)
(4.79144 -0.334776 0)
(4.63149 -0.303444 0)
(4.48342 -0.273423 0)
(4.34703 -0.244792 0)
(4.22204 -0.217604 0)
(4.10809 -0.191892 0)
(4.00474 -0.167668 0)
(3.91154 -0.144933 0)
(3.82797 -0.123675 0)
(3.75349 -0.103875 0)
(3.68754 -0.0855078 0)
(3.62956 -0.0685484 0)
(3.57898 -0.0529677 0)
(3.53522 -0.0387403 0)
(3.4977 -0.0258405 0)
(3.46587 -0.0142444 0)
(3.43916 -0.00393231 0)
(3.417 0.00510768 0)
(3.3989 0.0128859 0)
(3.38432 0.0194043 0)
(3.37276 0.0246611 0)
(3.36367 0.0286357 0)
(3.35671 0.0313468 0)
(3.35102 0.0326197 0)
(3.34739 0.0329682 0)
(3.34165 0.0291251 0)
(12.081 -0.658575 0)
(12.1258 -0.685232 0)
(12.1332 -0.708655 0)
(12.1081 -0.727642 0)
(12.0547 -0.742322 0)
(11.9763 -0.753166 0)
(11.8752 -0.760528 0)
(11.7536 -0.764776 0)
(11.6133 -0.766394 0)
(11.456 -0.765876 0)
(11.2831 -0.763636 0)
(11.0959 -0.759997 0)
(10.8956 -0.755218 0)
(10.6833 -0.7495 0)
(10.46 -0.74298 0)
(10.2266 -0.73574 0)
(9.98412 -0.727813 0)
(9.73339 -0.719189 0)
(9.4753 -0.709831 0)
(9.21072 -0.699675 0)
(8.94054 -0.688644 0)
(8.66565 -0.676652 0)
(8.38698 -0.663618 0)
(8.10549 -0.649467 0)
(7.82219 -0.63414 0)
(7.53809 -0.617597 0)
(7.25427 -0.599824 0)
(6.97182 -0.580832 0)
(6.69184 -0.560664 0)
(6.41545 -0.539387 0)
(6.14373 -0.517097 0)
(5.87777 -0.493918 0)
(5.61857 -0.469993 0)
(5.36711 -0.445484 0)
(5.12427 -0.420564 0)
(4.89083 -0.395415 0)
(4.66747 -0.370219 0)
(4.45474 -0.345153 0)
(4.25311 -0.320386 0)
(4.06287 -0.296071 0)
(3.88423 -0.272344 0)
(3.71727 -0.249324 0)
(3.56196 -0.227107 0)
(3.41817 -0.205769 0)
(3.28569 -0.185368 0)
(3.16424 -0.165943 0)
(3.05346 -0.147517 0)
(2.95295 -0.130099 0)
(2.86227 -0.113687 0)
(2.78095 -0.0982686 0)
(2.70851 -0.0838264 0)
(2.64445 -0.070337 0)
(2.58825 -0.0577751 0)
(2.5394 -0.0461137 0)
(2.49741 -0.0353266 0)
(2.46176 -0.0253889 0)
(2.43196 -0.0162782 0)
(2.40754 -0.00797339 0)
(2.38801 -0.000460286 0)
(2.3729 0.00627226 0)
(2.36178 0.012232 0)
(2.35419 0.017419 0)
(2.3497 0.0218305 0)
(2.34786 0.0254639 0)
(2.34826 0.0283132 0)
(2.35045 0.0303514 0)
(2.3541 0.0315688 0)
(2.35856 0.0318228 0)
(2.36388 0.0313078 0)
(2.36967 0.0282778 0)
(11.5754 -0.6678 0)
(11.4354 -0.649216 0)
(11.2644 -0.633512 0)
(11.0685 -0.619036 0)
(10.853 -0.604957 0)
(10.6218 -0.59096 0)
(10.3781 -0.57688 0)
(10.1245 -0.562652 0)
(9.86292 -0.54834 0)
(9.59528 -0.534089 0)
(9.32297 -0.52003 0)
(9.04717 -0.50626 0)
(8.76886 -0.492836 0)
(8.4889 -0.479784 0)
(8.20802 -0.467099 0)
(7.92686 -0.45475 0)
(7.64599 -0.442679 0)
(7.36594 -0.430814 0)
(7.08722 -0.419074 0)
(6.81033 -0.407371 0)
(6.53577 -0.395618 0)
(6.26405 -0.383731 0)
(5.99571 -0.37164 0)
(5.73131 -0.359282 0)
(5.47143 -0.346616 0)
(5.21666 -0.333615 0)
(4.96762 -0.320272 0)
(4.7249 -0.306597 0)
(4.48912 -0.29262 0)