/*--------------------------------*- C++ -*----------------------------------*\
| =========                 |                                                 |
| \\      /  F ield         | OpenFOAM: The Open Source CFD Toolbox           |
|  \\    /   O peration     | Version:  2406                                  |
|   \\  /    A nd           | Website:  www.openfoam.com                      |
|    \\/     M anipulation  |                                                 |
\*---------------------------------------------------------------------------*/
FoamFile
{
    version     2.0;
    format      ascii;
    arch        "LSB;label=32;scalar=64";
    class       volScalarField;
    location    "500";
    object      p;
}
// * * * * * * * * * * * * * * * * * * * * * * * * * * * * * * * * * * * * * //

dimensions      [0 2 -2 0 0 0 0];

internalField   nonuniform List<scalar> 
150000
(
235.142
128.003
71.013
47.7253
34.3708
25.5579
19.7899
15.816
12.8676
10.5596
8.68381
7.11394
5.76948
4.59715
3.56007
2.63162
1.79203
1.02615
0.322185
-0.329244
-0.935701
-1.50336
-2.03734
-2.5419
-3.02061
-3.47654
-3.91228
-4.33008
-4.73188
-5.11937
-5.49403
-5.85716
-6.20991
-6.5533
-6.88825
-7.21556
-7.53597
-7.85013
-8.15864
-8.46203
-8.7608
-9.05539
-9.34621
-9.63364
-9.91802
-10.1997
-10.4789
-10.7559
-11.0311
-11.3046
-11.5766
-11.8474
-12.1172
-12.3861
-12.6544
-12.9222
-13.1896
-13.4569
-13.7242
-13.9917
-14.2594
-14.5276
-14.7963
-15.0658
-15.3362
-15.6075
-15.88
-16.1538
-16.4291
-16.706
-16.9846
-17.2652
-17.5478
-17.8328
-18.1203
-18.4104
-18.7034
-18.9996
-19.2991
-19.6023
-19.9094
-20.2208
-20.5368
-20.8579
-21.1843
-21.5168
-21.8557
-22.2016
-22.5554
-22.9176
-23.2892
-23.6711
-24.0648
-24.4724
-24.8989
-25.3566
-25.8711
-26.4668
-27.2144
-29.0557
134.308
94.6819
65.0879
48.5071
37.0905
28.6424
22.6023
18.2136
14.8764
12.2431
10.1057
8.32764
6.81669
5.50993
4.36301
3.34374
2.42815
1.59802
0.839186
0.140493
-0.507001
-1.11055
-1.67612
-2.20864
-2.71225
-3.19045
-3.64621
-4.08207
-4.50023
-4.9026
-5.29083
-5.66638
-6.03053
-6.38442
-6.72905
-7.06532
-7.39403
-7.71591
-8.03161
-8.34171
-8.64676
-8.94723
-9.24356
-9.53618
-9.82544
-10.1117
-10.3953
-10.6764
-10.9555
-11.2327
-11.5083
-11.7824
-12.0554
-12.3274
-12.5987
-12.8693
-13.1395
-13.4094
-13.6792
-13.9491
-14.2192
-14.4896
-14.7606
-15.0323
-15.3047
-15.5782
-15.8527
-16.1285
-16.4058
-16.6847
-16.9653
-17.2478
-17.5325
-17.8195
-18.1089
-18.4011
-18.6963
-18.9946
-19.2964
-19.6019
-19.9116
-20.2256
-20.5444
-20.8685
-21.1983
-21.5345
-21.8776
-22.2283
-22.5878
-22.9569
-23.337
-23.73
-24.1384
-24.5659
-25.0187
-25.5078
-26.0506
-26.673
-27.4763
-28.8174
85.7832
74.5508
59.9023
47.7597
38.1469
30.5203
24.6442
20.1298
16.5875
13.7447
11.4177
9.47604
7.82684
6.40376
5.15879
4.05645
3.07001
2.17901
1.36754
0.62301
-0.0646484
-0.703602
-1.30054
-1.86101
-2.38964
-2.89032
-3.36637
-3.82061
-4.25549
-4.6731
-5.07528
-5.46363
-5.83956
-6.20431
-6.55899
-6.90458
-7.24195
-7.57189
-7.8951
-8.21223
-8.52385
-8.83048
-9.13262
-9.43069
-9.7251
-10.0162
-10.3044
-10.5899
-10.8731
-11.1542
-11.4335
-11.7113
-11.9876
-12.2629
-12.5372
-12.8108
-13.0839
-13.3565
-13.629
-13.9015
-14.174
-14.4469
-14.7202
-14.9941
-15.2688
-15.5445
-15.8211
-16.0991
-16.3784
-16.6593
-16.942
-17.2265
-17.5132
-17.8022
-18.0937
-18.388
-18.6852
-18.9857
-19.2897
-19.5976
-19.9096
-20.2261
-20.5477
-20.8746
-21.2075
-21.5471
-21.8939
-22.249
-22.6134
-22.9884
-23.3757
-23.7775
-24.1969
-24.6381
-25.1071
-25.6121
-26.1631
-26.7703
-27.453
-28.2397
65.149
61.5044
53.2815
44.5145
36.9338
30.5637
25.3134
21.049
17.5759
14.7167
12.334
10.3223
8.60102
7.10948
5.8018
4.64304
3.60626
2.6705
1.81922
1.03924
0.319937
-0.347349
-0.969735
-1.55313
-2.10248
-2.62196
-3.11511
-3.58495
-4.03409
-4.46479
-4.87901
-5.27846
-5.66465
-6.0389
-6.4024
-6.75619
-7.1012
-7.43827
-7.76816
-8.09153
-8.40902
-8.72117
-9.0285
-9.33146
-9.63049
-9.92597
-10.2183
-10.5077
-10.7946
-11.0793
-11.362
-11.6429
-11.9224
-12.2005
-12.4777
-12.754
-13.0296
-13.3047
-13.5796
-13.8543
-14.1291
-14.4041
-14.6795
-14.9555
-15.2321
-15.5096
-15.7882
-16.0679
-16.349
-16.6317
-16.9161
-17.2023
-17.4907
-17.7814
-18.0746
-18.3705
-18.6694
-18.9716
-19.2773
-19.5868
-19.9006
-20.219
-20.5423
-20.8712
-21.2061
-21.5478
-21.8969
-22.2543
-22.6212
-22.9989
-23.3889
-23.7934
-24.2147
-24.6559
-25.1205
-25.6115
-26.1297
-26.6689
-27.2096
-27.708
52.4966
51.1671
46.5048
40.5462
34.8519
29.7269
25.229
21.3779
18.1158
15.351
12.9959
10.9754
9.22703
7.70001
6.35406
5.1572
4.08402
3.11423
2.23153
1.42275
0.677123
-0.0141759
-0.658471
-1.26187
-1.82951
-2.36573
-2.87423
-3.35819
-3.82033
-4.26302
-4.68833
-5.09805
-5.49377
-5.87688
-6.24863
-6.61012
-6.96232
-7.30613
-7.64233
-7.97163
-8.29469
-8.61208
-8.92435
-9.23198
-9.53542
-9.83508
-10.1313
-10.4245
-10.715
-11.003
-11.2889
-11.573
-11.8553
-12.1363
-12.4161
-12.695
-12.973
-13.2505
-13.5276
-13.8046
-14.0814
-14.3584
-14.6358
-14.9136
-15.192
-15.4713
-15.7515
-16.0329
-16.3156
-16.5998
-16.8857
-17.1734
-17.4632
-17.7553
-18.0498
-18.3471
-18.6473
-18.9507
-19.2576
-19.5684
-19.8833
-20.2028
-20.5272
-20.8571
-21.1929
-21.5354
-21.8851
-22.2429
-22.6098
-22.9868
-23.3753
-23.7765
-24.1919
-24.6228
-25.0695
-25.5304
-25.9994
-26.4622
-26.8903
-27.2359
43.7977
43.3489
40.6807
36.6875
32.4725
28.4171
24.6583
21.2833
18.3118
15.7153
13.45
11.47
9.73216
8.19822
6.83552
5.61681
4.51954
3.52512
2.61826
1.7863
1.01877
0.306955
-0.35646
-0.97762
-1.56173
-2.11321
-2.63586
-3.13293
-3.60723
-4.06123
-4.49704
-4.91655
-5.32138
-5.71301
-6.09272
-6.46165
-6.82084
-7.17119
-7.51354
-7.84863
-8.17714
-8.49968
-8.8168
-9.12902
-9.43679
-9.74056
-10.0407
-10.3376
-10.6316
-10.9229
-11.212
-11.499
-11.7843
-12.068
-12.3504
-12.6318
-12.9122
-13.192
-13.4713
-13.7503
-14.0292
-14.3081
-14.5873
-14.8668
-15.147
-15.4278
-15.7096
-15.9925
-16.2766
-16.5622
-16.8493
-17.1383
-17.4293
-17.7224
-18.018
-18.3162
-18.6174
-18.9216
-19.2293
-19.5407
-19.8561
-20.176
-20.5006
-20.8305
-21.166
-21.5079
-21.8565
-22.2126
-22.5769
-22.9501
-23.333
-23.7261
-24.1296
-24.5431
-24.9644
-25.3887
-25.8067
-26.2015
-26.5462
-26.8027
37.614
37.4858
35.8703
33.1384
30.014
26.8317
23.7418
20.8489
18.2081
15.8303
13.7037
11.807
10.1151
8.6024
7.24498
6.0215
4.91333
3.90448
2.98133
2.13232
1.34767
0.61908
-0.0605058
-0.697092
-1.29581
-1.86108
-2.39668
-2.90591
-3.39162
-3.8563
-4.30212
-4.73101
-5.14465
-5.54453
-5.93199
-6.3082
-6.67423
-7.03103
-7.37946
-7.72028
-8.05419
-8.38183
-8.70377
-9.02055
-9.33265
-9.64051
-9.94454
-10.2451
-10.5426
-10.8373
-11.1295
-11.4195
-11.7076
-11.9941
-12.2791
-12.5629
-12.8457
-13.1277
-13.4091
-13.6901
-13.9709
-14.2517
-14.5326
-14.8138
-15.0955
-15.3779
-15.6611
-15.9453
-16.2306
-16.5174
-16.8056
-17.0956
-17.3874
-17.6814
-17.9777
-18.2765
-18.5781
-18.8828
-19.1906
-19.5021
-19.8173
-20.1368
-20.4607
-20.7895
-21.1236
-21.4633
-21.8092
-22.1616
-22.5209
-22.8874
-23.2613
-23.6424
-24.0298
-24.4216
-24.8142
-25.2011
-25.5718
-25.9104
-26.1946
-26.3967
32.967
32.9379
31.8895
29.9665
27.6302
25.1351
22.6146
20.1685
17.8623
15.7268
13.7704
11.9895
10.3733
8.90767
7.57705
6.36633
5.26135
4.24929
3.31875
2.45972
1.66351
0.922531
0.230249
-0.419012
-1.03017
-1.60748
-2.15468
-2.67498
-3.17123
-3.64592
-4.10122
-4.53907
-4.96119
-5.36908
-5.7641
-6.14747
-6.52025
-6.88344
-7.23789
-7.58442
-7.92373
-8.25649
-8.58328
-8.90464
-9.22109
-9.53307
-9.84102
-10.1453
-10.4463
-10.7443
-11.0397
-11.3328
-11.6238
-11.9129
-12.2005
-12.4868
-12.7719
-13.0561
-13.3397
-13.6227
-13.9053
-14.1879
-14.4704
-14.7532
-15.0364
-15.3201
-15.6046
-15.89
-16.1764
-16.4641
-16.7532
-17.0439
-17.3364
-17.6309
-17.9275
-18.2266
-18.5282
-18.8327
-19.1402
-19.4511
-19.7655
-20.0837
-20.406
-20.7327
-21.0641
-21.4003
-21.7418
-22.0886
-22.4409
-22.7984
-23.1609
-23.5273
-23.8961
-24.2645
-24.6278
-24.9792
-25.3086
-25.6023
-25.8428
-26.0111
29.3024
29.2986
28.5754
27.1808
25.4082
23.4404
21.3854
19.3298
17.3369
15.4447
13.6722
12.0269
10.5082
9.11051
7.82575
6.64441
5.55673
4.55322
3.625
2.7639
1.96257
1.21444
0.513695
-0.144828
-0.765667
-1.35282
-1.90983
-2.43978
-2.94544
-3.42922
-3.89329
-4.33954
-4.76969
-5.18526
-5.58759
-5.97791
-6.35732
-6.7268
-7.08724
-7.43944
-7.78415
-8.12203
-8.45369
-8.77968
-9.10052
-9.41668
-9.72858
-10.0366
-10.3412
-10.6426
-10.9413
-11.2374
-11.5313
-11.8232
-12.1134
-12.4021
-12.6896
-12.976
-13.2616
-13.5465
-13.8311
-14.1153
-14.3995
-14.6838
-14.9683
-15.2533
-15.5389
-15.8253
-16.1126
-16.4011
-16.6908
-16.982
-17.2749
-17.5696
-17.8662
-18.1651
-18.4664
-18.7702
-19.0769
-19.3865
-19.6993
-20.0155
-20.3353
-20.6589
-20.9865
-21.3181
-21.6538
-21.9935
-22.337
-22.6839
-23.0332
-23.3836
-23.7328
-24.0775
-24.4129
-24.7324
-25.0269
-25.2852
-25.4941
-25.6406
26.315
26.3153
25.7905
24.7483
23.3793
21.8118
20.1295
18.4036
16.69
15.027
13.4379
11.9361
10.5273
9.21221
7.98813
6.85025
5.79268
4.80906
3.89295
3.03814
2.23878
1.48943
0.785167
0.121491
-0.505632
-1.09982
-1.66432
-2.20203
-2.71554
-3.20715
-3.67894
-4.13277
-4.57028
-4.99298
-5.40219
-5.79914
-6.1849
-6.56048
-6.92675
-7.28454
-7.63458
-7.97754
-8.31405
-8.64467
-8.96992
-9.29027
-9.60617
-9.91803
-10.2262
-10.5311
-10.833
-11.1322
-11.429
-11.7237
-12.0165
-12.3077
-12.5975
-12.8862
-13.1738
-13.4607
-13.747
-14.033
-14.3187
-14.6044
-14.8902
-15.1763
-15.463
-15.7502
-16.0383
-16.3273
-16.6175
-16.909
-17.2019
-17.4965
-17.7928
-18.0912
-18.3916
-18.6944
-18.9996
-19.3074
-19.618
-19.9315
-20.248
-20.5677
-20.8904
-21.2163
-21.5451
-21.8766
-22.2103
-22.5453
-22.8806
-23.2143
-23.5439
-23.8661
-24.176
-24.4675
-24.7331
-24.9636
-25.1496
-25.2817
23.8206
23.8196
23.4228
22.622
21.545
20.2817
18.8951
17.4422
15.9703
14.5145
13.0989
11.7392
10.4447
9.22014
8.06648
6.98249
5.96538
5.01141
4.11639
3.27592
2.48561
1.74124
1.0388
0.374556
-0.254934
-0.85283
-1.42201
-1.96509
-2.48444
-2.9822
-3.46031
-3.92052
-4.36442
-4.79343
-5.20886
-5.61188
-6.00356
-6.38486
-6.75668
-7.11981
-7.475
-7.82291
-8.16417
-8.49934
-8.82894
-9.15345
-9.47333
-9.78898
-10.1008
-10.4091
-10.7143
-11.0166
-11.3163
-11.6138
-11.9093
-12.203
-12.4951
-12.7859
-13.0757
-13.3645
-13.6525
-13.9401
-14.2273
-14.5143
-14.8013
-15.0885
-15.376
-15.664
-15.9527
-16.2421
-16.5325
-16.824
-17.1168
-17.4109
-17.7066
-18.0041
-18.3033
-18.6045
-18.9078
-19.2133
-19.5211
-19.8313
-20.1438
-20.4587
-20.7759
-21.0952
-21.4164
-21.7388
-22.0619
-22.3846
-22.7056
-23.0228
-23.3337
-23.6348
-23.9219
-24.1895
-24.4313
-24.6403
-24.8092
-24.9319
21.6992
21.6964
21.3864
20.7559
19.8936
18.8628
17.7106
16.4817
15.2152
13.942
12.6848
11.4598
10.2781
9.14625
8.06794
7.04435
6.07498
5.15821
4.29166
3.47252
2.69775
1.96425
1.26893
0.60882
-0.018892
-0.616863
-1.18756
-1.73327
-2.25609
-2.75795
-3.24061
-3.7057
-4.15469
-4.58892
-5.00962
-5.41791
-5.81482
-6.20128
-6.57816
-6.94624
-7.30624
-7.65882
-8.00459
-8.34412
-8.67792
-9.00647
-9.33022
-9.64959
-9.96494
-10.2766
-10.585
-10.8904
-11.1931
-11.4934
-11.7914
-12.0876
-12.382
-12.675
-12.9667
-13.2574
-13.5472
-13.8363
-14.1249
-14.4132
-14.7013
-14.9894
-15.2777
-15.5663
-15.8553
-16.145
-16.4354
-16.7267
-17.019
-17.3125
-17.6073
-17.9034
-18.2011
-18.5004
-18.8014
-19.1041
-19.4086
-19.7148
-20.0228
-20.3324
-20.6435
-20.9557
-21.2686
-21.5815
-21.8937
-22.204
-22.5108
-22.8122
-23.1055
-23.3877
-23.6548
-23.9022
-24.1246
-24.3167
-24.4731
-24.5894
19.8692
19.865
19.6166
19.1097
18.4079
17.5566
16.5907
15.545
14.4517
13.337
12.2213
11.1204
10.0456
9.00477
8.00284
7.04264
6.12532
5.25081
4.41816
3.62588
2.87204
2.15454
1.47114
0.819602
0.197703
-0.396697
-0.965641
-1.51106
-2.03476
-2.53843
-3.02364
-3.49183
-3.94436
-4.38244
-4.80723
-5.21976
-5.621
-6.01185
-6.39311
-6.76555
-7.12985
-7.48667
-7.83658
-8.18014
-8.51787
-8.85022
-9.17764
-9.50054
-9.8193
-10.1343
-10.4458
-10.7541
-11.0596
-11.3626
-11.6632
-11.9617
-12.2584
-12.5535
-12.8471
-13.1396
-13.431
-13.7216
-14.0115
-14.3009
-14.59
-14.8789
-15.1678
-15.4569
-15.7462
-16.0359
-16.3261
-16.617
-16.9086
-17.2012
-17.4947
-17.7893
-18.0851
-18.3821
-18.6804
-18.9799
-19.2807
-19.5826
-19.8856
-20.1895
-20.494
-20.7987
-21.1031
-21.4064
-21.7077
-22.0058
-22.299
-22.5856
-22.8629
-23.1282
-23.3779
-23.6082
-23.815
-23.9938
-24.1409
-24.253
18.2722
18.2674
18.0643
17.6493
17.0698
16.3585
15.5415
14.646
13.698
12.7196
11.7288
10.7401
9.76444
8.8101
7.88278
6.98624
6.12273
5.29328
4.49804
3.7365
3.00768
2.31029
1.64283
1.00371
0.391255
-0.196186
-0.760247
-1.30251
-1.82448
-2.32759
-2.81321
-3.28259
-3.73693
-4.17734
-4.60484
-5.02039
-5.42489
-5.81916
-6.20396
-6.58
-6.94794
-7.3084
-7.66194
-8.00908
-8.35032
-8.68612
-9.0169
-9.34306
-9.66496
-9.98296
-10.2974
-10.6085
-10.9167
-11.2222
-11.5252
-11.826
-12.1248
-12.4218
-12.7173
-13.0114
-13.3044
-13.5963
-13.8874
-14.1779
-14.4678
-14.7574
-15.0468
-15.3361
-15.6255
-15.915
-16.2049
-16.4951
-16.7859
-17.0773
-17.3693
-17.6621
-17.9557
-18.2501
-18.5454
-18.8414
-19.1381
-19.4355
-19.7332
-20.0311
-20.3288
-20.6259
-20.9216
-21.2154
-21.506
-21.7924
-22.0729
-22.3457
-22.6086
-22.859
-23.0938
-23.31
-23.504
-23.6725
-23.8127
-23.9222
16.8656
16.8606
16.6918
16.3468
15.8618
15.261
14.5641
13.7921
12.966
12.1044
11.2229
10.3343
9.4492
8.57549
7.71922
6.8847
6.07483
5.29142
4.53538
3.80696
3.10592
2.43164
1.78322
1.15961
0.559653
-0.0178932
-0.574277
-1.11075
-1.62853
-2.12881
-2.61273
-3.08136
-3.53575
-3.97687
-4.40562
-4.82286
-5.22941
-5.62601
-6.01337
-6.39213
-6.76292
-7.12631
-7.48282
-7.83297
-8.17721
-8.51599
-8.8497
-9.17874
-9.50345
-9.82418
-10.1412
-10.4549
-10.7655
-11.0733
-11.3785
-11.6814
-11.9821
-12.281
-12.5781
-12.8738
-13.1681
-13.4612
-13.7534
-14.0447
-14.3353
-14.6255
-14.9152
-15.2046
-15.4939
-15.7831
-16.0724
-16.3618
-16.6515
-16.9415
-17.2318
-17.5226
-17.8137
-18.1053
-18.3973
-18.6895
-18.982
-19.2745
-19.5668
-19.8585
-20.1494
-20.4388
-20.7261
-21.0105
-21.291
-21.5663
-21.835
-22.0954
-22.3454
-22.5827
-22.8049
-23.0092
-23.1928
-23.3534
-23.4885
-23.5965
15.6171
15.6121
15.4699
15.1792
14.7684
14.256
13.6564
12.9865
12.263
11.5014
10.715
9.91536
9.11193
8.31236
7.52262
6.74724
5.98952
5.25174
4.53536
3.84119
3.16954
2.52031
1.8931
1.28733
0.702232
0.136957
-0.409412
-0.937825
-1.44924
-1.94462
-2.42488
-2.89094
-3.34367
-3.78391
-4.21244
-4.63002
-5.03737
-5.43515
-5.82401
-6.20453
-6.57729
-6.9428
-7.30156
-7.65404
-8.00067
-8.34186
-8.678
-9.00945
-9.33655
-9.65962
-9.97897
-10.2949
-10.6076
-10.9174
-11.2246
-11.5293
-11.8317
-12.1322
-12.4308
-12.7277
-13.0232
-13.3174
-13.6104
-13.9024
-14.1936
-14.484
-14.7739
-15.0632
-15.3522
-15.6409
-15.9294
-16.2179
-16.5063
-16.7946
-17.0831
-17.3716
-17.6601
-17.9487
-18.2372
-18.5255
-18.8136
-19.1011
-19.3878
-19.6734
-19.9574
-20.2393
-20.5184
-20.7939
-21.0648
-21.3298
-21.5877
-21.8369
-22.0755
-22.3015
-22.5129
-22.7074
-22.8828
-23.037
-23.1684
-23.2758
14.5015
14.4968
14.3755
14.1277
13.7762
13.3349
12.8152
12.2299
11.593
10.917
10.2134
9.49233
8.7622
8.03018
7.30201
6.58222
5.87429
5.1808
4.50356
3.84379
3.20218
2.57906
1.97443
1.38806
0.81954
0.268335
-0.26618
-0.784694
-1.28793
-1.77662
-2.25153
-2.71337
-3.16288
-3.60075
-4.02767
-4.44428
-4.8512
-5.24903
-5.63832
-6.01962
-6.39342
-6.76021
-7.12043
-7.47451
-7.82286
-8.16585
-8.50384
-8.83717
-9.16617
-9.49113
-9.81234
-10.1301
-10.4446
-10.7561
-11.0648
-11.3711
-11.675
-11.9767
-12.2765
-12.5746
-12.871
-13.166
-13.4597
-13.7522
-14.0437
-14.3342
-14.624
-14.9131
-15.2017
-15.4897
-15.7773
-16.0645
-16.3514
-16.638
-16.9244
-17.2104
-17.4962
-17.7816
-18.0665
-18.3508
-18.6343
-18.9169
-19.1981
-19.4776
-19.7549
-20.0295
-20.3008
-20.5678
-20.8297
-21.0853
-21.3334
-21.5725
-21.8011
-22.0174
-22.2197
-22.406
-22.5747
-22.7241
-22.8529
-22.9603
13.4992
13.4948
13.3903
13.1769
12.8731
12.49
12.036
11.5217
10.9579
10.3555
9.72392
9.07203
8.40742
7.73658
7.06492
6.39686
5.73589
5.08474
4.44546
3.8195
3.20789
2.61124
2.02987
1.46383
0.913012
0.377137
-0.144174
-0.651379
-1.14499
-1.62557
-2.09368
-2.54991
-2.99483
-3.42904
-3.85308
-4.26751
-4.67287
-5.06966
-5.45837
-5.83947
-6.21342
-6.58063
-6.94151
-7.29646
-7.64583
-7.98996
-8.3292
-8.66386
-8.99422
-9.32057
-9.64318
-9.9623
-10.2782
-10.591
-10.901
-11.2085
-11.5135
-11.8163
-12.117
-12.4159
-12.713
-13.0085
-13.3026
-13.5954
-13.887
-14.1775
-14.467
-14.7557
-15.0435
-15.3307
-15.6171
-15.903
-16.1882
-16.4729
-16.757
-17.0405
-17.3234
-17.6055
-17.8867
-18.167
-18.446
-18.7235
-18.9992
-19.2728
-19.5437
-19.8114
-20.0752
-20.3343
-20.5879
-20.8349
-21.0741
-21.3044
-21.5242
-21.7321
-21.9267
-22.1063
-22.2696
-22.4153
-22.5423
-22.6501
12.5944
12.5903
12.4995
12.314
12.0492
11.7139
11.3147
10.8599
10.3584
9.81915
9.25031
8.65942
8.05322
7.43758
6.81753
6.19725
5.58018
4.96908
4.36612
3.77294
3.19075
2.62039
2.06243
1.51714
0.984651
0.464896
-0.0422918
-0.53718
-1.0201
-1.49145
-1.95164
-2.40111
-2.84033
-3.26975
-3.68983
-4.10103
-4.5038
-4.89857
-5.28576
-5.66578
-6.03901
-6.40584
-6.76662
-7.12169
-7.4714
-7.81603
-8.15591
-8.49131
-8.82249
-9.14973
-9.47325
-9.79331
-10.1101
-10.4239
-10.7348
-11.0431
-11.3489
-11.6524
-11.9537
-12.2531
-12.5506
-12.8465
-13.1407
-13.4335
-13.725
-14.0152
-14.3043
-14.5923
-14.8793
-15.1653
-15.4505
-15.7348
-16.0183
-16.3009
-16.5826
-16.8634
-17.1433
-17.422
-17.6996
-17.9757
-18.2502
-18.5228
-18.7932
-19.061
-19.3258
-19.5868
-19.8436
-20.0954
-20.3414
-20.5805
-20.8119
-21.0343
-21.2465
-21.4472
-21.6353
-21.8093
-21.9683
-22.1111
-22.237
-22.3455
11.7743
11.7705
11.6909
11.5283
11.2957
11.0002
10.6468
10.2423
9.79403
9.30932
8.79514
8.258
7.70382
7.13787
6.56476
5.98841
5.41212
4.83861
4.2701
3.70831
3.15461
2.61
2.07519
1.55068
1.03675
0.533529
0.0410128
-0.440898
-0.912386
-1.37369
-1.8251
-2.26694
-2.69955
-3.12328
-3.53851
-3.94559
-4.3449
-4.7368
-5.12163
-5.49976
-5.87151
-6.23721
-6.59717
-6.9517
-7.30109
-7.64561
-7.98553
-8.3211
-8.65258
-8.98019
-9.30415
-9.62469
-9.94199
-10.2563
-10.5677
-10.8764
-11.1826
-11.4865
-11.7882
-12.0878
-12.3855
-12.6813
-12.9755
-13.2681
-13.5592
-13.8489
-14.1373
-14.4244
-14.7103
-14.9951
-15.2788
-15.5614
-15.843
-16.1234
-16.4026
-16.6807
-16.9574
-17.2328
-17.5066
-17.7787
-18.0488
-18.3166
-18.5819
-18.8441
-19.103
-19.3578
-19.6081
-19.8531
-20.0921
-20.3242
-20.5485
-20.7639
-20.9695
-21.1641
-21.3467
-21.5162
-21.6717
-21.8123
-21.9376
-22.047
11.0283
11.0249
10.9546
10.811
10.6052
10.343
10.0283
9.66655
9.26388
8.82638
8.35995
7.87021
7.36235
6.84107
6.31055
5.77444
5.23585
4.69742
4.16134
3.62941
3.10303
2.58333
2.07116
1.56714
1.07171
0.585122
0.107531
-0.361031
-0.820614
-1.27134
-1.71337
-2.14692
-2.57224
-2.98958
-3.39923
-3.80147
-4.1966
-4.58491
-4.96669
-5.34224
-5.71183
-6.07575
-6.43425
-6.78762
-7.13609
-7.47992
-7.81933
-8.15456
-8.48582
-8.81332
-9.13727
-9.45784
-9.77523
-10.0896
-10.4011
-10.71
-11.0163
-11.3202
-11.6218
-11.9214
-12.2189
-12.5145
-12.8083
-13.1004
-13.3909
-13.6799
-13.9674
-14.2535
-14.5382
-14.8215
-15.1036
-15.3844
-15.6638
-15.9419
-16.2186
-16.4938
-16.7675
-17.0395
-17.3096
-17.5776
-17.8434
-18.1066
-18.3669
-18.6239
-18.8771
-19.1262
-19.3704
-19.6092
-19.8419
-20.0676
-20.2855
-20.4949
-20.6947
-20.884
-21.0619
-21.2277
-21.3804
-21.5195
-21.6444
-21.7549
10.3479
10.3447
10.2822
10.1545
9.97122
9.73708
9.45524
9.13009
8.76669
8.37018
7.94557
7.49768
7.03107
6.54991
6.05799
5.55864
5.05479
4.54895
4.04327
3.53952
3.03916
2.54338
2.05312
1.5691
1.09186
0.621791
0.159145
-0.295927
-0.743364
-1.18318
-1.61544
-2.04026
-2.4578
-2.86823
-3.27176
-3.6686
-4.05897
-4.44311
-4.82126
-5.19365
-5.56051
-5.92208
-6.27858
-6.63024
-6.97728
-7.3199
-7.65832
-7.99272
-8.3233
-8.65025
-8.97374
-9.29394
-9.61101
-9.92511
-10.2364
-10.545
-10.851
-11.1547
-11.456
-11.7552
-12.0522
-12.3473
-12.6405
-12.9319
-13.2216
-13.5096
-13.796
-14.0809
-14.3642
-14.6459
-14.9262
-15.205
-15.4823
-15.758
-16.032
-16.3044
-16.5749
-16.8435
-17.1099
-17.374
-17.6356
-17.8943
-18.1499
-18.4019
-18.6499
-18.8935
-19.1322
-19.3653
-19.5921
-19.8121
-20.0245
-20.2284
-20.4232
-20.608
-20.7821
-20.9447
-21.0952
-21.2331
-21.358
-21.4696
9.72558
9.72267
9.66674
9.55248
9.38825
9.17798
8.92418
8.63046
8.30104
7.94024
7.55231
7.14144
6.71159
6.26647
5.80947
5.34366
4.87174
4.39609
3.91876
3.44151
2.96579
2.49282
2.02361
1.55894
1.09944
0.645581
0.197721
-0.243901
-0.67913
-1.10789
-1.53016
-1.94598
-2.35541
-2.75857
-3.15558
-3.54659
-3.93177
-4.3113
-4.68535
-5.05411
-5.41777
-5.77653
-6.13057
-6.48007
-6.82522
-7.16619
-7.50317
-7.83633
-8.16582
-8.49182
-8.81446
-9.13391
-9.4503
-9.76378
-10.0745
-10.3825
-10.688
-10.991
-11.2918
-11.5903
-11.8866
-12.181
-12.4733
-12.7638
-13.0524
-13.3393
-13.6244
-13.9078
-14.1896
-14.4696
-14.748
-15.0247
-15.2997
-15.5729
-15.8443
-16.1138
-16.3812
-16.6464
-16.9092
-17.1695
-17.427
-17.6814
-17.9324
-18.1797
-18.4228
-18.6614
-18.8948
-19.1227
-19.3444
-19.5592
-19.7666
-19.9658
-20.1562
-20.3371
-20.5078
-20.6679
-20.8166
-20.9537
-21.0787
-21.1916
9.15536
9.15268
9.10233
8.99949
8.85148
8.66162
8.43191
8.16533
7.86541
7.53581
7.18016
6.80207
6.40501
5.99226
5.56686
5.1316
4.68898
4.24121
3.79026
3.33782
2.88532
2.434
1.98489
1.53882
1.09648
0.658414
0.225046
-0.203305
-0.626408
-1.04411
-1.45631
-1.86299
-2.26413
-2.65978
-3.05
-3.43489
-3.81456
-4.18913
-4.55873
-4.92351
-5.28361
-5.63917
-5.99036
-6.33733
-6.68021
-7.01917
-7.35435
-7.6859
-8.01395
-8.33864
-8.66011
-8.97847
-9.29387
-9.60641
-9.9162
-10.2234
-10.528
-10.8302
-11.1301
-11.4277
-11.7231
-12.0165
-12.3078
-12.5971
-12.8845
-13.17
-13.4537
-13.7355
-14.0155
-14.2938
-14.5701
-14.8447
-15.1173
-15.388
-15.6567
-15.9232
-16.1875
-16.4494
-16.7087
-16.9652
-17.2188
-17.4691
-17.7158
-17.9586
-18.1972
-18.431
-18.6597
-18.8828
-19.0997
-19.3099
-19.5129
-19.7079
-19.8945
-20.072
-20.24
-20.3978
-20.5451
-20.6816
-20.8069
-20.921
8.63197
8.6295
8.58394
8.49086
8.35675
8.18444
7.97552
7.73247
7.45828
7.15602
6.82884
6.47983
6.11205
5.72839
5.33158
4.92413
4.50834
4.08629
3.65981
3.23052
2.79984
2.36898
1.93897
1.51068
1.08485
0.662054
0.242785
-0.172579
-0.583746
-0.990496
-1.39267
-1.79018
-2.18295
-2.57097
-2.95425
-3.33283
-3.70677
-4.07614
-4.44104
-4.80155
-5.1578
-5.50988
-5.85793
-6.20205
-6.54237
-6.87901
-7.21209
-7.54172
-7.86803
-8.19112
-8.51111
-8.82812
-9.14223
-9.45356
-9.7622
-10.0682
-10.3718
-10.6729
-10.9717
-11.2682
-11.5624
-11.8546
-12.1446
-12.4326
-12.7186
-13.0026
-13.2847
-13.5649
-13.8431
-14.1193
-14.3936
-14.6659
-14.9361
-15.2042
-15.4702
-15.7338
-15.995
-16.2536
-16.5095
-16.7624
-17.0122
-17.2586
-17.5012
-17.7399
-17.9741
-18.2036
-18.4279
-18.6466
-18.8593
-19.0653
-19.2642
-19.4556
-19.6388
-19.8134
-19.979
-20.135
-20.2812
-20.4173
-20.543
-20.6583
8.15096
8.14868
8.10723
8.02255
7.90043
7.74328
7.5524
7.32985
7.07815
6.79994
6.49792
6.17477
5.83316
5.47565
5.10469
4.72254
4.33132
3.93293
3.52911
3.12139
2.71114
2.29953
1.88761
1.47625
1.06621
0.658105
0.252469
-0.150274
-0.549778
-0.945772
-1.33805
-1.72645
-2.11086
-2.49122
-2.86749
-3.23965
-3.60773
-3.97175
-4.33176
-4.68782
-5.04001
-5.3884
-5.73307
-6.07412
-6.41163
-6.7457
-7.07643
-7.40391
-7.72822
-8.04948
-8.36776
-8.68316
-8.99576
-9.30565
-9.61291
-9.91762
-10.2198
-10.5197
-10.8171
-11.1123
-11.4053
-11.696
-11.9846
-12.2712
-12.5556
-12.838
-13.1184
-13.3967
-13.6729
-13.9472
-14.2193
-14.4893
-14.7571
-15.0226
-15.2858
-15.5465
-15.8047
-16.0601
-16.3127
-16.5621
-16.8083
-17.0509
-17.2897
-17.5244
-17.7546
-17.9801
-18.2003
-18.415
-18.6237
-18.826
-19.0214
-19.2094
-19.3897
-19.5618
-19.7253
-19.8798
-20.0251
-20.1609
-20.287
-20.4035
7.70849
7.70638
7.66849
7.59107
7.47933
7.33536
7.16018
6.95555
6.7236
6.4666
6.18686
5.88673
5.56854
5.23457
4.88699
4.52786
4.15909
3.78247
3.39958
3.0119
2.62073
2.2272
1.83235
1.43704
1.04204
0.648004
0.255483
-0.135059
-0.523238
-0.908738
-1.2913
-1.67074
-2.04688
-2.41962
-2.78887
-3.15459
-3.51674
-3.87532
-4.23035
-4.58183
-4.92982
-5.27435
-5.61549
-5.95329
-6.28781
-6.61913
-6.94732
-7.27244
-7.59458
-7.91379
-8.23017
-8.54377
-8.85466
-9.16293
-9.46862
-9.7718
-10.0725
-10.3709
-10.6669
-10.9606
-11.252
-11.5413
-11.8284
-12.1133
-12.396
-12.6767
-12.9552
-13.2316
-13.5059
-13.778
-14.0479
-14.3155
-14.5809
-14.8438
-15.1043
-15.3622
-15.6174
-15.8697
-16.119
-16.3651
-16.6078
-16.8468
-17.082
-17.313
-17.5395
-17.7612
-17.9777
-18.1887
-18.3939
-18.5927
-18.7849
-18.97
-19.1477
-19.3175
-19.4792
-19.6325
-19.777
-19.9126
-20.0392
-20.1568
7.30125
7.29929
7.26449
7.19339
7.09068
6.95819
6.79676
6.60784
6.39328
6.15502
5.89507
5.61546
5.31826
5.00547
4.67905
4.34085
3.99261
3.63596
3.27241
2.90331
2.52991
2.15332
1.77452
1.39438
1.01366
0.633039
0.253078
-0.125729
-0.502967
-0.878286
-1.25139
-1.62205
-1.99007
-2.35529
-2.71759
-3.07689
-3.43312
-3.78623
-4.13621
-4.48305
-4.82675
-5.16733
-5.50482
-5.83924
-6.17065
-6.49908
-6.82458
-7.1472
-7.467
-7.78403
-8.09834
-8.40999
-8.71902
-9.0255
-9.32947
-9.63098
-9.93008
-10.2268
-10.5212
-10.8133
-11.1032
-11.3908
-11.6761
-11.9593
-12.2403
-12.5192
-12.7958
-13.0702
-13.3424
-13.6123
-13.88
-14.1453
-14.4081
-14.6685
-14.9263
-15.1814
-15.4337
-15.683
-15.9292
-16.172
-16.4114
-16.6471
-16.8788
-17.1063
-17.3293
-17.5475
-17.7606
-17.9682
-18.1701
-18.3659
-18.5552
-18.7377
-18.913
-19.0809
-19.241
-19.3932
-19.5371
-19.6726
-19.7997
-19.9182
6.92635
6.92453
6.89243
6.82683
6.73202
6.60959
6.4602
6.28512
6.08591
5.86426
5.62191
5.36064
5.08226
4.78856
4.48128
4.1621
3.83261
3.49429
3.14855
2.79666
2.4398
2.07902
1.71528
1.34943
0.982232
0.614351
0.246373
-0.121195
-0.487913
-0.853404
-1.21735
-1.57947
-1.93955
-2.2974
-2.65286
-3.00581
-3.35616
-3.70383
-4.04876
-4.39093
-4.73031
-5.06688
-5.40065
-5.73163
-6.05982
-6.38527
-6.70798
-7.028
-7.34535
-7.66007
-7.9722
-8.28177
-8.58883
-8.8934
-9.19554
-9.49526
-9.79261
-10.0876
-10.3803
-10.6707
-10.9588
-11.2447
-11.5283
-11.8097
-12.0888
-12.3658
-12.6404
-12.9128
-13.1829
-13.4507
-13.716
-13.979
-14.2394
-14.4972
-14.7523
-15.0047
-15.2541
-15.5005
-15.7437
-15.9835
-16.2197
-16.4522
-16.6806
-16.9048
-17.1245
-17.3395
-17.5494
-17.754
-17.9529
-18.1458
-18.3325
-18.5126
-18.6859
-18.852
-19.0108
-19.162
-19.3054
-19.4408
-19.5683
-19.6878
6.58129
6.57958
6.54984
6.48908
6.40119
6.28759
6.14881
5.98593
5.80031
5.59341
5.36674
5.12186
4.86039
4.58389
4.29394
3.99205
3.67967
3.35816
3.02882
2.69284
2.35132
2.00528
1.65564
1.30322
0.948767
0.592953
0.236363
-0.120481
-0.477125
-0.833171
-1.18827
-1.54214
-1.89451
-2.24516
-2.59393
-2.94066
-3.28521
-3.6275
-3.96743
-4.30494
-4.63999
-4.97254
-5.30257
-5.63005
-5.955
-6.27739
-6.59725
-6.91459
-7.22941
-7.54175
-7.85161
-8.15902
-8.46401
-8.76659
-9.06679
-9.36464
-9.66014
-9.95333
-10.2442
-10.5328
-10.8191
-11.1032
-11.385
-11.6645
-11.9418
-12.2167
-12.4894
-12.7597
-13.0277
-13.2932
-13.5563
-13.8169
-14.0749
-14.3302
-14.5828
-14.8325
-15.0791
-15.3227
-15.563
-15.7998
-16.033
-16.2624
-16.4878
-16.7089
-16.9256
-17.1375
-17.3445
-17.5462
-17.7423
-17.9327
-18.117
-18.295
-18.4664
-18.631
-18.7885
-18.9388
-19.0818
-19.2173
-19.3452
-19.4655
6.26386
6.26226
6.2346
6.17807
6.09627
5.99045
5.86104
5.70896
5.53539
5.34161
5.12893
4.89873
4.65244
4.39146
4.1172
3.83103
3.53425
3.22813
2.91386
2.59256
2.26527
1.93294
1.59645
1.25662
0.914161
0.569738
0.223938
-0.122712
-0.469747
-0.816752
-1.16337
-1.50927
-1.85419
-2.19787
-2.54013
-2.88078
-3.21966
-3.55665
-3.89165
-4.22457
-4.55533
-4.88387
-5.21015
-5.53414
-5.8558
-6.17513
-6.4921
-6.80671
-7.11896
-7.42885
-7.73639
-8.04158
-8.34443
-8.64496
-8.94316
-9.23906
-9.53267
-9.82398
-10.113
-10.3998
-10.6842
-10.9664
-11.2463
-11.524
-11.7993
-12.0723
-12.3429
-12.6111
-12.877
-13.1403
-13.4012
-13.6594
-13.915
-14.1679
-14.4179
-14.665
-14.909
-15.1498
-15.3873
-15.6213
-15.8516
-16.0781
-16.3006
-16.5189
-16.7327
-16.9418
-17.146
-17.345
-17.5387
-17.7267
-17.9088
-18.0849
-18.2546
-18.4177
-18.5742
-18.7238
-18.8663
-19.0018
-19.1301
-19.2512
5.97212
5.97062
5.94479
5.892
5.81557
5.71662
5.5955
5.45299
5.29013
5.10803
4.90785
4.69082
4.45818
4.2112
3.95114
3.67923
3.39668
3.10465
2.80422
2.49645
2.18231
1.86271
1.53848
1.21041
0.879199
0.545496
0.209884
-0.127109
-0.46501
-0.803396
-1.14189
-1.48016
-1.8179
-2.15487
-2.49082
-2.82556
-3.15892
-3.49075
-3.82091
-4.14931
-4.47584
-4.80042
-5.12299
-5.4435
-5.7619
-6.07814
-6.39221
-6.70408
-7.01373
-7.32115
-7.62633
-7.92926
-8.22994
-8.52837
-8.82454
-9.11845
-9.4101
-9.6995
-9.98663
-10.2715
-10.5541
-10.8344
-11.1124
-11.3881
-11.6614
-11.9324
-12.201
-12.4672
-12.7309
-12.9921
-13.2507
-13.5066
-13.7599
-14.0103
-14.2578
-14.5024
-14.7438
-14.982
-15.2168
-15.4481
-15.6757
-15.8995
-16.1192
-16.3348
-16.5459
-16.7524
-16.954
-17.1506
-17.342
-17.5278
-17.708
-17.8822
-18.0504
-18.2122
-18.3677
-18.5166
-18.6588
-18.7943
-18.9229
-19.0448
5.70438
5.70296
5.67875
5.62926
5.55758
5.46471
5.35094
5.21693
5.0636
4.89192
4.70292
4.49769
4.27733
4.04297
3.79576
3.53682
3.26723
2.98806
2.70033
2.40501
2.10301
1.79519
1.48236
1.16526
0.844566
0.520922
0.194899
-0.132976
-0.462229
-0.792428
-1.12319
-1.45416
-1.78503
-2.11553
-2.44541
-2.77445
-3.10246
-3.42926
-3.75472
-4.0787
-4.40109
-4.72178
-5.0407
-5.35777
-5.67292
-5.98612
-6.2973
-6.60643
-6.91348
-7.21842
-7.52122
-7.82188
-8.12036
-8.41667
-8.71077
-9.00267
-9.29235
-9.5798
-9.86501
-10.148
-10.4286
-10.707
-10.9831
-11.2568
-11.5282
-11.7972
-12.0638
-12.3279
-12.5895
-12.8485
-13.1049
-13.3586
-13.6095
-13.8576
-14.1028
-14.3448
-14.5838
-14.8194
-15.0517
-15.2804
-15.5054
-15.7266
-15.9438
-16.1567
-16.3653
-16.5693
-16.7686
-16.9629
-17.1521
-17.336
-17.5143
-17.6869
-17.8536
-18.0144
-18.1689
-18.3172
-18.4591
-18.5945
-18.7235
-18.846
5.45913
5.45779
5.43501
5.38844
5.32096
5.23348
5.12623
4.99978
4.85494
4.69257
4.51357
4.31892
4.1096
3.88664
3.65105
3.40386
3.14607
2.87865
2.60254
2.31866
2.02784
1.73092
1.42865
1.12174
0.81086
0.496625
0.179599
-0.139697
-0.460788
-0.783241
-1.10666
-1.43069
-1.75501
-2.07933
-2.40338
-2.72693
-3.04978
-3.37173
-3.69263
-4.01231
-4.33066
-4.64756
-4.96289
-5.27659
-5.58856
-5.89873
-6.20706
-6.51347
-6.81794
-7.12041
-7.42085