/*--------------------------------*- C++ -*----------------------------------*\
| =========                 |                                                 |
| \\      /  F ield         | OpenFOAM: The Open Source CFD Toolbox           |
|  \\    /   O peration     | Version:  2406                                  |
|   \\  /    A nd           | Website:  www.openfoam.com                      |
|    \\/     M anipulation  |                                                 |
\*---------------------------------------------------------------------------*/
FoamFile
{
    version     2.0;
    format      ascii;
    arch        "LSB;label=32;scalar=64";
    class       surfaceScalarField;
    location    "500";
    object      phi;
}
// * * * * * * * * * * * * * * * * * * * * * * * * * * * * * * * * * * * * * //

dimensions      [0 3 -1 0 0 0 0];

oriented        oriented;

internalField   nonuniform List<scalar> 
299000
(
0.0796643
0.0203357
0.0586791
0.0209852
0.0442546
0.0144245
0.0348018
0.0094528
0.0284998
0.00630199
0.0241895
0.00431032
0.0211378
0.00305174
0.0188882
0.00224956
0.0171642
0.00172401
0.015798
0.00136625
0.0146851
0.0011129
0.0137582
0.000926898
0.0129722
0.000785954
0.012296
0.00067623
0.0117071
0.00058885
0.0111892
0.000517928
0.0107298
0.000459438
0.0103192
0.00041054
0.00995004
0.00036918
0.0096162
0.000333837
0.00931284
0.000303365
0.00903595
0.000276882
0.00878225
0.000253702
0.00854897
0.000233281
0.00833378
0.000215186
0.00813472
0.000199066
0.00795008
0.000184636
0.00777842
0.000171661
0.00761848
0.000159945
0.00746915
0.000149326
0.00732948
0.000139666
0.00719863
0.00013085
0.00707586
0.000122778
0.00696049
0.000115366
0.00685195
0.000108542
0.0067497
0.000102242
0.00665329
9.64115e-05
0.00656229
9.10028e-05
0.00647632
8.59741e-05
0.00639503
8.12887e-05
0.00631811
7.6914e-05
0.00624529
7.28212e-05
0.00617631
6.89848e-05
0.00611092
6.53819e-05
0.00604893
6.1992e-05
0.00599014
5.87968e-05
0.00593436
5.57798e-05
0.00588143
5.2926e-05
0.00583121
5.02219e-05
0.00578355
4.7655e-05
0.00573834
4.52143e-05
0.00569545
4.28893e-05
0.00565478
4.06706e-05
0.00561623
3.85495e-05
0.00557971
3.6518e-05
0.00554514
3.45686e-05
0.00551245
3.26942e-05
0.00548156
3.08883e-05
0.00545241
2.91448e-05
0.00542496
2.74579e-05
0.00539913
2.58219e-05
0.0053749
2.42316e-05
0.00535222
2.26818e-05
0.00533105
2.11675e-05
0.00531137
1.96839e-05
0.00529314
1.8226e-05
0.00527635
1.6789e-05
0.00526098
1.5368e-05
0.00524703
1.3958e-05
0.00523447
1.25538e-05
0.00522332
1.11499e-05
0.00521358
9.74062e-06
0.00520526
8.31969e-06
0.00519838
6.88036e-06
0.00519297
5.41518e-06
0.00518905
3.9158e-06
0.00518668
2.37279e-06
0.0051859
7.753e-07
0.00518679
-8.89256e-07
0.00518943
-2.63579e-06
0.00519391
-4.48202e-06
0.00520036
-6.44944e-06
0.00520892
-8.56444e-06
0.00521978
-1.08601e-05
0.00523316
-1.33786e-05
0.00524934
-1.61756e-05
0.00526866
-1.93264e-05
0.0052916
-2.29385e-05
0.00531877
-2.71728e-05
0.00535106
-3.2286e-05
0.00538977
-3.87147e-05
0.00543702
-4.72469e-05
0.0054964
-5.93766e-05
0.00557445
-7.80563e-05
0.00568381
-0.000109358
0.00584988
-0.00016607
0.00612448
-0.000274597
0.00661476
-0.000490286
0.0075872
-0.000972439
-0.00230117
0.00988837
0.105208
0.0151279
0.100188
0.026005
0.0901927
0.0244198
0.0797502
0.0198953
0.0705678
0.0154844
0.062986
0.0118921
0.0568434
0.00919425
0.051863
0.00723004
0.0477863
0.00580062
0.044406
0.00474661
0.0415641
0.0039548
0.0391433
0.00334772
0.0370564
0.00287281
0.0352383
0.00249431
0.0336396
0.00218755
0.0322223
0.00193521
0.0309569
0.00172491
0.0298198
0.00154759
0.0287924
0.00139656
0.0278595
0.00126673
0.0270087
0.00115423
0.0262295
0.00105603
0.0255135
0.000969737
0.0248533
0.000893456
0.0242428
0.000825654
0.0236768
0.000765085
0.0231507
0.000710728
0.0226607
0.000661738
0.0222032
0.00061741
0.0217754
0.000577152
0.0213746
0.000540466
0.0209985
0.000506928
0.0206451
0.000476175
0.0203126
0.000447897
0.0199993
0.000421824
0.0197038
0.000397724
0.0194248
0.000375395
0.0191612
0.000354658
0.0189118
0.000335359
0.0186757
0.00031736
0.0184521
0.00030054
0.0182401
0.000284791
0.0180391
0.000270017
0.0178483
0.000256132
0.0176672
0.00024306
0.0174953
0.000230731
0.017332
0.000219084
0.0171769
0.000208061
0.0170295
0.000197611
0.0168894
0.000187689
0.0167564
0.000178251
0.01663
0.000169258
0.01651
0.000160674
0.0163961
0.000152467
0.016288
0.000144606
0.0161855
0.000137063
0.0160884
0.00012981
0.0159965
0.000122824
0.0159095
0.00011608
0.0158274
0.000109558
0.01575
0.000103234
0.0156772
9.70905e-05
0.0156087
9.11067e-05
0.0155447
8.52641e-05
0.0154848
7.95441e-05
0.0154291
7.39284e-05
0.0153775
6.83988e-05
0.0153299
6.29369e-05
0.0152863
5.75239e-05
0.0152468
5.21405e-05
0.0152111
4.67663e-05
0.0151795
4.13799e-05
0.0151519
3.59585e-05
0.0151283
3.04771e-05
0.0151088
2.49081e-05
0.0150935
1.9221e-05
0.0150825
1.33812e-05
0.0150759
7.34882e-06
0.0150739
1.0779e-06
0.0150768
-5.48588e-06
0.0150847
-1.24074e-05
0.015098
-1.97654e-05
0.0151171
-2.76567e-05
0.0151424
-3.62032e-05
0.0151746
-4.5561e-05
0.0152144
-5.59352e-05
0.0152627
-6.76044e-05
0.0153207
-8.09595e-05
0.0153901
-9.65733e-05
0.0154731
-0.000115322
0.015573
-0.00013861
0.0156946
-0.000168785
0.0158451
-0.000209913
0.0160363
-0.000269257
0.016287
-0.00036006
0.0166275
-0.000506576
0.0171054
-0.00075252
0.0177926
-0.00117742
0.018754
-0.00193387
-0.00324573
0.0196985
0.105142
0.00998553
0.10894
0.0222073
0.107707
0.0256525
0.103024
0.0245789
0.0967859
0.0217222
0.0902296
0.0184484
0.084004
0.0154198
0.0783713
0.0128627
0.0733868
0.0107852
0.069013
0.00912042
0.0651793
0.00778845
0.0618099
0.00671709
0.058835
0.0058477
0.0561944
0.00513494
0.0538376
0.00454438
0.0517228
0.00404999
0.0498156
0.00363209
0.0480876
0.00327565
0.046515
0.00296909
0.0450783
0.00270344
0.0437609
0.00247162
0.0425489
0.00226804
0.0414304
0.00208822
0.0403954
0.00192851
0.0394351
0.00178598
0.038542
0.00165818
0.0377096
0.00154311
0.0369322
0.0014391
0.0362049
0.00134472
0.0355232
0.0012588
0.0348834
0.00118033
0.0342819
0.00110845
0.0337156
0.00104241
0.033182
0.00098157
0.0326784
0.000925389
0.0322027
0.000873382
0.031753
0.000825127
0.0313274
0.000780257
0.0309243
0.000738446
0.0305423
0.000699407
0.0301799
0.000662888
0.029836
0.00062866
0.0295095
0.000596522
0.0291994
0.000566294
0.0289046
0.000537812
0.0286244
0.000510931
0.028358
0.000485518
0.0281046
0.000461453
0.0278636
0.000438628
0.0276343
0.000416943
0.0274163
0.000396307
0.0272089
0.000376638
0.0270117
0.000357858
0.0268243
0.000339898
0.0266462
0.00032269
0.0264771
0.000306176
0.0263166
0.000290297
0.0261644
0.000275001
0.0260203
0.000260237
0.0258839
0.000245959
0.025755
0.00023212
0.0256334
0.000218678
0.0255189
0.000205591
0.0254113
0.000192818
0.0253106
0.000180321
0.0252164
0.000168059
0.0251288
0.000155995
0.0250477
0.000144088
0.0249729
0.000132299
0.0249045
0.000120588
0.0248423
0.00010891
0.0247865
9.72214e-05
0.024737
8.54737e-05
0.0246938
7.36145e-05
0.0246571
6.15864e-05
0.024627
4.93258e-05
0.0246037
3.67606e-05
0.0245872
2.38086e-05
0.0245779
1.03745e-05
0.0245761
-3.65353e-06
0.0245821
-1.84089e-05
0.0245964
-3.40532e-05
0.0246195
-5.07848e-05
0.0246521
-6.88523e-05
0.0246951
-8.85734e-05
0.0247496
-0.000110363
0.0248167
-0.000134778
0.0248984
-0.000162588
0.0249967
-0.000194893
0.0251147
-0.000233314
0.0252564
-0.000280331
0.0254275
-0.000339843
0.0256357
-0.00041814
0.025892
-0.000525531
0.0262109
-0.00067902
0.0266107
-0.000906332
0.0271094
-0.0012512
0.0277109
-0.00177891
0.0283518
-0.00257481
-0.00368834
0.0287944
0.103312
0.00667345
0.108501
0.0170182
0.111574
0.0225796
0.111772
0.0243813
0.109656
0.0238376
0.106064
0.0220406
0.101731
0.0197535
0.0971663
0.017427
0.0926753
0.0152762
0.0884165
0.0133793
0.084459
0.0117459
0.0808214
0.0103547
0.0774951
0.00917394
0.0744594
0.00817066
0.0716886
0.00731519
0.0691564
0.00658219
0.0668379
0.00595064
0.0647102
0.00540335
0.0627529
0.00492636
0.060948
0.0045083
0.0592797
0.00413994
0.057734
0.00381373
0.0562988
0.00352346
0.0549633
0.00326401
0.0537181
0.00303113
0.0525551
0.00282127
0.0514667
0.00263145
0.0504466
0.00245916
0.0494891
0.00230227
0.048589
0.00215895
0.0477416
0.00202766
0.046943
0.00190705
0.0461895
0.00179596
0.0454776
0.00169339
0.0448046
0.00159846
0.0441676
0.0015104
0.0435641
0.00142855
0.0429921
0.0013523
0.0424494
0.00128114
0.0419342
0.0012146
0.0414448
0.00115227
0.0409797
0.00109377
0.0405375
0.00103878
0.0401167
0.000987
0.0397164
0.00093816
0.0393353
0.00089202
0.0389725
0.00084836
0.0386269
0.000806984
0.0382979
0.000767708
0.0379844
0.000730369
0.0376859
0.000694814
0.0374017
0.000660905
0.037131
0.000628514
0.0368734
0.000597521
0.0366282
0.000567818
0.0363951
0.000539302
0.0361735
0.000511878
0.0359631
0.000485455
0.0357634
0.00045995
0.035574
0.000435282
0.0353948
0.000411376
0.0352253
0.000388158
0.0350653
0.000365558
0.0349147
0.000343509
0.034773
0.000321943
0.0346403
0.000300795
0.0345163
0.00028
0.0344009
0.000259491
0.034294
0.000239203
0.0341955
0.000219067
0.0341054
0.000199011
0.0340237
0.00017896
0.0339503
0.000158836
0.0338854
0.000138551
0.0338289
0.000118011
0.0337812
9.71116e-05
0.0337422
7.57358e-05
0.0337122
5.37497e-05
0.0336916
3.09991e-05
0.0336807
7.3035e-06
0.0336798
-1.75512e-05
0.0336896
-4.3823e-05
0.0337106
-7.18272e-05
0.0337437
-0.000101956
0.0337898
-0.000134707
0.0338502
-0.000170722
0.0339263
-0.000210849
0.0340199
-0.000256238
0.0341335
-0.000308483
0.0342701
-0.000369856
0.0344334
-0.00044367
0.0346284
-0.000534859
0.0348611
-0.000650873
0.0351386
-0.000803022
0.035468
-0.00100835
0.0358535
-0.00129184
0.0362903
-0.001688
0.0367504
-0.00223906
0.0371581
-0.00298253
-0.00390833
0.0373781
0.102077
0.00459599
0.106348
0.0127481
0.110418
0.0185089
0.113046
0.0217537
0.113912
0.0229718
0.113196
0.0227563
0.111292
0.0216576
0.108612
0.0201073
0.105493
0.0183942
0.102183
0.0166901
0.0988426
0.015086
0.0955748
0.0136225
0.0924378
0.0123109
0.0894618
0.0111466
0.0866591
0.0101179
0.0840311
0.00921023
0.0815728
0.0084089
0.079276
0.00770015
0.0771308
0.00707165
0.0751264
0.00651261
0.0732527
0.00601371
0.0714994
0.00556699
0.0698572
0.00516563
0.0683174
0.00480383
0.0668719
0.00447662
0.0655134
0.00417978
0.0642352
0.00390968
0.0630311
0.00366319
0.0618958
0.00343763
0.060824
0.00323069
0.0598114
0.00304034
0.0588536
0.00286483
0.0579469
0.00270263
0.0570879
0.00255241
0.0562734
0.00241298
0.0555005
0.00228331
0.0547665
0.00216248
0.0540692
0.00204968
0.0534061
0.00194418
0.0527754
0.00184534
0.0521751
0.00175257
0.0516035
0.00166537
0.051059
0.00158327
0.0505401
0.00150585
0.0500456
0.00143272
0.049574
0.00136355
0.0491244
0.00129802
0.0486955
0.00123585
0.0482865
0.00117677
0.0478963
0.00112056
0.0475241
0.00106698
0.0471692
0.00101585
0.0468307
0.000966967
0.0465081
0.000920167
0.0462006
0.000875288
0.0459077
0.000832181
0.0456289
0.000790706
0.0453636
0.000750733
0.0451114
0.000712137
0.0448719
0.000674801
0.0446447
0.000638614
0.0444293
0.000603468
0.0442256
0.00056926
0.0440333
0.000535891
0.0438519
0.000503262
0.0436815
0.000471277
0.0435216
0.00043984
0.0433722
0.000408855
0.0432332
0.000378225
0.0431044
0.000347849
0.0429858
0.000317623
0.0428774
0.00028744
0.042779
0.000257183
0.0426908
0.000226729
0.0426129
0.000195942
0.0425453
0.000164672
0.0424883
0.000132753
0.0424421
9.99954e-05
0.0424069
6.61816e-05
0.0423831
3.1059e-05
0.0423713
-5.67058e-06
0.0423718
-4.43637e-05
0.0423854
-8.5453e-05
0.0424129
-0.000129471
0.0424553
-0.000177086
0.0425137
-0.000229147
0.0425896
-0.000286756
0.0426848
-0.000351371
0.0428012
-0.000424955
0.0429416
-0.000510206
0.0431088
-0.000610886
0.0433063
-0.00073231
0.0435374
-0.000882025
0.0438051
-0.0010707
0.0441099
-0.00131312
0.0444469
-0.00162888
0.0448007
-0.00204178
0.0451372
-0.00257556
0.0453969
-0.00324221
-0.00401652
0.0455051
0.101292
0.0033038
0.104405
0.00963532
0.108104
0.0148097
0.111405
0.0184527
0.113752
0.0206252
0.114946
0.0215622
0.11504
0.0215632
0.114221
0.0209266
0.112713
0.0199021
0.110728
0.0186756
0.108439
0.0173744
0.105982
0.0160798
0.103453
0.0148393
0.100922
0.0136781
0.0984331
0.0126068
0.096016
0.0116273
0.0936886
0.0107363
0.0914605
0.00992824
0.089336
0.00919614
0.0873158
0.00853285
0.0853981
0.00793143
0.0835797
0.00738539
0.0818565
0.00688879
0.080224
0.00643631
0.0786774
0.00602319
0.077212
0.00564522
0.075823
0.00529867
0.0745059
0.00498026
0.0732565
0.00468707
0.0720706
0.00441657
0.0709445
0.00416649
0.0698744
0.00393484
0.0688572
0.00371984
0.0678897
0.00351993
0.066969
0.00333372
0.0660923
0.00315996
0.0652573
0.00299755
0.0644615
0.00284549
0.0637027
0.0027029
0.0629791
0.00256898
0.0622887
0.00244301
0.0616297
0.00232434
0.0610006
0.00221238
0.0603998
0.00210661
0.059826
0.00200653
0.0592779
0.00191171
0.0587541
0.00182175
0.0582537
0.00173627
0.0577755
0.00165495
0.0573186
0.00157747
0.0568821
0.00150354
0.056465
0.00143291
0.0560666
0.00136532
0.0556863
0.00130055
0.0553231
0.0012384
0.0549767
0.00117865
0.0546462
0.00112113
0.0543313
0.00106566
0.0540314
0.00101208
0.0537459
0.000960226
0.0534746
0.000909953
0.053217
0.000861116
0.0529726
0.000813578
0.0527413
0.000767203
0.0525227
0.000721862
0.0523166
0.000677424
0.0521227
0.000633762
0.0519408
0.000590745
0.0517708
0.000548244
0.0516125
0.000506125
0.0514658
0.00046425
0.0513308
0.000422475
0.0512073
0.000380647
0.0510955
0.000338602
0.0509953
0.000296162
0.0509068
0.000253131
0.0508303
0.000209293
0.0507658
0.000164403
0.0507138
0.000118181
0.0506746
7.03037e-05
0.0506485
2.03942e-05
0.0506362
-3.19957e-05
0.0506381
-8.7404e-05
0.0506551
-0.000146486
0.0506881
-0.00021005
0.0507381
-0.000279108
0.0508062
-0.000354949
0.0508941
-0.00043923
0.0510033
-0.000534121
0.0511356
-0.000642494
0.0512929
-0.000768185
0.0514769
-0.000916347
0.0516888
-0.00109388
0.051928
-0.0013099
0.0521909
-0.00157607
0.0524685
-0.00190643
0.0527426
-0.00231588
0.0529831
-0.00281613
0.0531482
-0.00340733
-0.00406455
0.0531963
0.100819
0.00248528
0.103016
0.00743826
0.105987
0.0118382
0.109099
0.0153406
0.111866
0.0178587
0.113984
0.0194436
0.115325
0.0202223
0.115892
0.0203603
0.115767
0.0200268
0.115071
0.0193713
0.113931
0.0185144
0.112464
0.0175474
0.110767
0.0165354
0.108923
0.0155225
0.106993
0.0145371
0.105024
0.0135964
0.10305
0.0127095
0.101098
0.0118805
0.0991847
0.0111097
0.0973218
0.0103958
0.0955174
0.00973584
0.0937762
0.00912654
0.0921008
0.00856418
0.0904921
0.00804506
0.0889497
0.00756557
0.0874726
0.00712231
0.0860592
0.00671212
0.0847074
0.00633205
0.083415
0.00597946
0.0821797
0.0056519
0.080999
0.00534716
0.0798705
0.00506327
0.078792
0.0047984
0.077761
0.00455094
0.0767753
0.0043194
0.0758328
0.00410247
0.0749314
0.00389894
0.0740692
0.00370771
0.0732443
0.0035278
0.0724549
0.00335831
0.0716995
0.00319844
0.0709764
0.00304743
0.0702842
0.00290461
0.0696214
0.00276937
0.0689868
0.00264113
0.0683791
0.00251939
0.0677972
0.00240367
0.06724
0.00229352
0.0667064
0.00218855
0.0661954
0.00208838
0.0657063
0.00199268
0.0652381
0.00190111
0.06479
0.00181338
0.0643614
0.00172922
0.0639514
0.00164836
0.0635595
0.00157057
0.063185
0.0014956
0.0628274
0.00142326
0.0624862
0.00135332
0.0621608
0.0012856
0.0618509
0.00121991
0.0615559
0.00115607
0.0612756
0.00109391
0.0610095
0.00103326
0.0607574
0.00097395
0.060519
0.000915824
0.0602941
0.000858719
0.0600823
0.000802474
0.0598837
0.000746924
0.0596979
0.000691902
0.0595249
0.000637236
0.0593646
0.000582746
0.059217
0.000528242
0.0590821
0.000473521
0.0589599
0.000418364
0.0588505
0.000362531
0.058754
0.000305757
0.0586707
0.000247745
0.0586007
0.000188159
0.0585444
0.000126614
0.0585021
6.26611e-05
0.0584744
-4.22369e-06
0.0584616
-7.46641e-05
0.0584646
-0.000149409
0.0584839
-0.000229369
0.0585204
-0.000315664
0.0585752
-0.000409686
0.0586491
-0.000513182
0.0587434
-0.000628371
0.058859
-0.000758084
0.0589967
-0.000905947
0.059157
-0.0010766
0.059339
-0.00127591
0.0595402
-0.00151114
0.059755
-0.00179088
0.0599731
-0.00212449
0.0601777
-0.00252054
0.0603453
-0.00298365
0.0604472
-0.00350927
-0.00407694
0.0604596
0.100541
0.00194445
0.102093
0.00588619
0.104369
0.00956156
0.106997
0.0127127
0.109631
0.0152252
0.111998
0.0170761
0.11392
0.0183006
0.115306
0.0189741
0.11614
0.0191927
0.116455
0.0190564
0.116312
0.0186572
0.115785
0.0180744
0.114949
0.0173722
0.113871
0.0166001
0.112613
0.0157953
0.111225
0.0149843
0.109749
0.0141855
0.108218
0.013411
0.106659
0.0126686
0.105093
0.0119626
0.103533
0.011295
0.101994
0.0106663
0.100482
0.0100757
0.099005
0.00952213
0.0975668
0.00900372
0.0961706
0.00851856
0.0948181
0.0080646
0.0935104
0.0076398
0.0922477
0.00724213
0.0910299
0.00686967
0.0898565
0.00652057
0.0887267
0.00619311
0.0876394
0.00588569
0.0865935
0.00559681
0.0855878
0.00532509
0.084621
0.00506926
0.0836918
0.00482813
0.0827989
0.00460063
0.081941
0.00438576
0.0811167
0.0041826
0.0803248
0.0039903
0.0795641
0.0038081
0.0788335
0.00363526
0.0781317
0.00347114
0.0774577
0.00331512
0.0768105
0.00316663
0.076189
0.00302516
0.0755923
0.00289022
0.0750195
0.00276136
0.0744697
0.00263817
0.0739421
0.00252025
0.073436
0.00240724
0.0729506
0.00229881
0.0724851
0.00219464
0.0720391
0.00209442
0.0716118
0.00199788
0.0712026
0.00190474
0.0708111
0.00181476
0.0704368
0.0017277
0.070079
0.00164333
0.0697375
0.00156143
0.0694118
0.00148178
0.0691015
0.00140418
0.0688063
0.00132844
0.0685259
0.00125435
0.0682601
0.00118172
0.0680084
0.00111036
0.0677708
0.00104008
0.067547
0.000970685
0.067337
0.00090197
0.0671405
0.000833734
0.0669575
0.000765762
0.0667879
0.00069783
0.0666317
0.000629698
0.0664889
0.00056111
0.0663597
0.000491785
0.066244
0.000421416
0.0661421
0.00034966
0.0660541
0.000276132
0.0659804
0.000200395
0.0659211
0.000121944
0.0658767
4.01969e-05
0.0658475
-4.55317e-05
0.0658342
-0.000136053
0.0658371
-0.000232336
0.065857
-0.000335551
0.0658945
-0.000447119
0.0659501
-0.00056878
0.0660244
-0.000702672
0.0661177
-0.000851434
0.0662301
-0.0010183
0.0663607
-0.00120724
0.0665078
-0.00142296
0.0666676
-0.00167096
0.0668339
-0.00195722
0.066997
-0.00228757
0.0671429
-0.00266643
0.0672538
-0.00309456
0.0673106
-0.00356604
-0.00406509
0.0672987
0.100374
0.00157011
0.101489
0.00477132
0.103211
0.00784012
0.105327
0.0105962
0.107614
0.0129383
0.109868
0.0148222
0.111926
0.0162431
0.113673
0.0172268
0.115045
0.0178201
0.11602
0.0180813
0.116607
0.0180712
0.116833
0.0178483
0.11674
0.0174652
0.116373
0.0169668
0.115778
0.0163899
0.114998
0.015764
0.114072
0.0151116
0.113033
0.01445
0.11191
0.0137917
0.110727
0.0131458
0.109504
0.0125184
0.108256
0.0119135
0.106998
0.0113338
0.10574
0.0107804
0.10449
0.0102539
0.103254
0.00975407
0.102039
0.00928036
0.100847
0.00883192
0.099681
0.0084077
0.0985441
0.00800657
0.0974373
0.00762732
0.0963617
0.00726875
0.0953177
0.00692965
0.0943056
0.00660886
0.0933255
0.00630526
0.092377
0.00601776
0.0914598
0.00574535
0.0905733
0.00548706
0.0897171
0.00524199
0.0888904
0.00500928
0.0880926
0.00478814
0.0873229
0.00457782
0.0865805
0.00437762
0.0858647
0.00418689
0.0851748
0.00400502
0.08451
0.00383143
0.0838696
0.00366559
0.0832528
0.00350701
0.082659
0.00335521
0.0820874
0.00320976
0.0815374
0.00307025
0.0810083
0.00293628
0.0804997
0.00280749
0.0800108
0.00268354
0.0795411
0.00256411
0.0790901
0.00244888
0.0786572
0.00233756
0.0782421
0.00222988
0.0778443
0.00212556
0.0774632
0.00202435
0.0770987
0.001926
0.0767502
0.00183028
0.0764174
0.00173696
0.0761
0.0016458
0.0757978
0.00155658
0.0755104
0.00146909
0.0752377
0.00138311
0.0749794
0.0012984
0.0747353
0.00121476
0.0745053
0.00113196
0.0742893
0.00104975
0.0740871
0.0009679
0.0738988
0.000886152
0.0737243
0.000804234
0.0735635
0.000721856
0.0734166
0.000638705
0.0732836
0.000554435
0.0731646
0.000468668
0.0730597
0.000380979
0.0729692
0.000290892
0.0728933
0.000197864
0.0728322
0.00010127
0.0727863
3.91451e-07
0.0727559
-0.000105614
0.0727413
-0.000217736
0.0727429
-0.000337141
0.072761
-0.000465219
0.0727958
-0.000603625
0.0728475
-0.000754335
0.0729157
-0.000919697
0.0729999
-0.00110249
0.0730986
-0.00130593
0.0732093
-0.00153367
0.073328
-0.00178968
0.0734487
-0.0020779
0.0735628
-0.0024017
0.0736593
-0.00276289
0.0737251
-0.00316031
0.0737471
-0.0035881
-0.0040343
0.0737163
0.10027
0.00129988
0.10109
0.00395126
0.102398
0.00653288
0.104073
0.00892074
0.105976
0.0110351
0.107967
0.0128317
0.109918
0.0142919
0.111727
0.0154181
0.113317
0.0162295
0.114642
0.0167562
0.115679
0.0170345
0.116424
0.0171031
0.116889
0.0169999
0.117096
0.0167603
0.11707
0.0164155
0.116842
0.0159926
0.116439
0.0155143
0.11589
0.014999
0.11522
0.0144614
0.114453
0.0139132
0.113608
0.0133632
0.112703
0.0128184
0.111754
0.0122835
0.110772
0.0117622
0.109769
0.011257
0.108753
0.0107696
0.107733
0.0103007
0.106714
0.00985094
0.105701
0.00942036
0.104699
0.00900875
0.103711
0.00861572
0.102739
0.00824073
0.101785
0.00788314
0.100852
0.00754225
0.0999398
0.00721732
0.09905
0.00690761
0.098183
0.00661236
0.0973392
0.00633083
0.0965189
0.0060623
0.0957221
0.00580606
0.0949488
0.00556144
0.0941988
0.00532779
0.093472
0.00510449
0.0927679
0.00489094
0.0920864
0.00468659
0.0914269
0.00449089
0.0907891
0.00430335
0.0901727
0.00412349
0.089577
0.00395084
0.0890018
0.00378497
0.0884466
0.00362548
0.0879109
0.00347198
0.0873943
0.00332409
0.0868964
0.00318146
0.0864167
0.00304376
0.0859549
0.00291067
0.0855106
0.00278188
0.0850834
0.00265709
0.0846729
0.00253603
0.0842789
0.00241842
0.0839009
0.002304
0.0835387
0.0021925
0.0831919
0.00208368
0.0828604
0.00197729
0.0825439
0.00187309
0.0822422
0.00177084
0.081955
0.00167029
0.0816822
0.00157121
0.0814236
0.00147335
0.0811791
0.00137645
0.0809486
0.00128026
0.080732
0.00118452
0.0805292
0.00108894
0.0803402
0.000993217
0.080165
0.000897046
0.0800036
0.000800081
0.0798561
0.00070195
0.0797225
0.000602247
0.079603
0.000500521
0.0794976
0.000396267
0.0794066
0.000288919
0.07933
0.000177835
0.0792681
6.2281e-05
0.0792211
-5.85865e-05
0.0791891
-0.000185741
0.0791723
-0.000320308
0.0791706
-0.0004636
0.0791842
-0.000617136
0.0792125
-0.000782676
0.079255
-0.000962242
0.0793107
-0.00115813
0.0793776
-0.00137287
0.0794532
-0.0016092
0.0795333
-0.00186983
0.0796126
-0.00215723
0.0796841
-0.00247312
0.0797389
-0.00281776
0.0797677
-0.00318913
0.0797616
-0.00358196
-0.00398716
0.0797145
0.100202
0.00109759
0.100821
0.0033324
0.101827
0.00552729
0.103151
0.00759624
0.104707
0.00947888
0.106402
0.0111373
0.108143
0.0125504
0.10985
0.0137115
0.111454
0.0146258
0.112903
0.0153071
0.114162
0.0157756
0.11521
0.0160548
0.11604
0.01617
0.116654
0.0161464
0.117061
0.0160081
0.117277
0.0157771
0.117318
0.0154731
0.117204
0.0151132
0.116953
0.014712
0.116585
0.0142816
0.116116
0.013832
0.115563
0.0133715
0.11494
0.0129065
0.11426
0.0124422
0.113534
0.0119826
0.112773
0.0115306
0.111985
0.0110886
0.111178
0.0106582
0.110358
0.0102405
0.10953
0.00983634
0.1087
0.00944605
0.107871
0.00906985
0.107046
0.00870772
0.106229
0.00835951
0.105421
0.00802495
0.104625
0.0077037
0.103842
0.00739534
0.103073
0.00709944
0.10232
0.00681552
0.101583
0.00654309
0.100863
0.00628167
0.10016
0.00603075
0.0994747
0.00578985
0.0988071
0.0055585
0.0981575
0.00533621
0.0975258
0.00512254
0.0969121
0.00491704
0.0963163
0.00471929
0.0957383
0.00452887
0.0951779
0.00434539
0.0946349
0.00416846
0.0941092
0.00399771
0.0936005
0.0038328
0.0931085
0.00367338
0.0926332
0.00351912
0.0921742
0.0033697
0.0917312
0.00322483
0.0913041
0.00308421
0.0908926
0.00294754
0.0904964
0.00281456
0.0901154
0.00268498
0.0897494
0.00255855
0.0893981
0.00243499
0.0890613
0.00231406
0.0887389
0.0021955
0.0884307
0.00207905
0.0881365
0.00196445
0.0878563
0.00185146
0.0875898
0.0017398
0.0873371
0.00162921
0.0870979
0.00151942
0.0868723
0.00141014
0.0866602
0.00130106
0.0864615
0.00119188
0.0862763
0.00108226
0.0861045
0.00097183
0.0859463
0.000860209
0.0858016
0.00074697
0.0856704
0.000631646
0.085553
0.000513721
0.0854493
0.000392619
0.0853594
0.000267695
0.0852835
0.000138225
0.0852215
3.38723e-06
0.0851735
-0.00013775
0.0851394
-0.000286242
0.0851191
-0.000443291
0.0851122
-0.000610253
0.0851182
-0.000788652
0.0851362
-0.000980179
0.0851647
-0.00118667
0.0852019
-0.00141008
0.0852451
-0.00165234
0.0852905
-0.00191526
0.0853335
-0.00220024
0.0853683
-0.00250792
0.0853883
-0.00283773
0.0853865
-0.00318734
0.0853567
-0.0035522
-0.00392534
0.0852949
0.100156
0.000941414
0.100635
0.00285364
0.101421
0.00474074
0.102476
0.00654172
0.103744
0.0082112
0.105163
0.00971836
0.106669
0.0110438
0.108203
0.012178
0.109709
0.01312
0.11114
0.0138753
0.112462
0.0144543
0.113646
0.0148707
0.114675
0.0151406
0.115541
0.0152809
0.11624
0.0153087
0.116776
0.0152408
0.117157
0.0150926
0.117392
0.0148786
0.117492
0.0146115
0.117471
0.0143027
0.117341
0.0139619
0.117115
0.0135975
0.116805
0.0132166
0.116422
0.0128249
0.115977
0.0124274
0.11548
0.012028
0.114939
0.0116299
0.114361
0.0112355
0.113755
0.010847
0.113125
0.0104659
0.112478
0.0100932
0.111818
0.00972982
0.11115
0.00937639
0.110476
0.00903328
0.1098
0.00870069
0.109125
0.0083787
0.108453
0.00806728
0.107786
0.00776633
0.107126
0.00747565
0.106474
0.00719503
0.105832
0.00692418
0.1052
0.00666282
0.104579
0.00641063
0.10397
0.00616727
0.103374
0.0059324
0.102791
0.00570568
0.102221
0.00548677
0.101665
0.00527531
0.101123
0.00507097
0.100595
0.00487342
0.100081
0.00468231
0.0995814
0.00449734
0.099096
0.00431817
0.0986249
0.0041445
0.098168
0.00397604
0.0977252
0.00381247
0.0972965
0.00365352
0.0968818
0.00349889
0.0964811
0.00334832
0.0960941
0.00320153
0.0957208
0.00305825
0.0953612
0.00291822
0.095015
0.00278117
0.0946822
0.00264684
0.0943627
0.00251498
0.0940564
0.00238533
0.0937633
0.00225761
0.0934832
0.00213158
0.093216
0.00200694
0.0929618
0.00188344
0.0927204
0.00176078
0.0924919
0.00163867
0.0922762
0.00151679
0.0920732
0.00139482
0.0918831
0.00127241
0.0917057
0.00114919
0.0915412
0.00102476
0.0913895
0.00089868
0.0912506
0.000770491
0.0911247
0.000639669
0.0910116
0.000505646
0.0909115
0.000367791
0.0908244
0.000225404
0.0907501
7.77023e-05
0.0906885
-7.61817e-05
0.0906395
-0.000237216
0.0906026
-0.000406475
0.0905775
-0.00058514
0.0905634
-0.000774499
0.0905591
-0.000975932
0.0905633
-0.00119088
0.090574
-0.00142077
0.0905886
-0.00166696
0.0906039
-0.00193055
0.0906159
-0.00221223
0.09062
-0.00251196
0.090611
-0.00282874
0.0905839
-0.00316024
0.0905343
-0.00350261
-0.00385043
0.0904594
0.100124
0.000817719
0.100503
0.00247479
0.101129
0.00411453
0.101978
0.00569253
0.103015
0.00717437
0.104198
0.00853532
0.105483
0.00975866
0.106826
0.0108348
0.108186
0.0117603
0.109525
0.0125365
0.11081
0.0131687
0.112016
0.0136647
0.113122
0.0140343
0.114115
0.0142887
0.114984
0.0144396
0.115725
0.014499
0.116339
0.0144786
0.116828
0.0143896
0.117197
0.0142425
0.117453
0.0140469
0.117604
0.0138113
0.117658
0.0135437
0.117624
0.0132506
0.11751
0.0129381
0.117327
0.0126112
0.11708
0.0122743
0.116779
0.0119309
0.116431
0.0115841
0.116041
0.0112366
0.115617
0.0108904
0.115163
0.0105471
0.114684
0.0102082
0.114186
0.00987476
0.113672
0.00954761
0.113145
0.00922741
0.112609
0.00891462
0.112067
0.00860958
0.11152
0.00831249
0.110973
0.00802349
0.110425
0.0077426
0.109879
0.00746978
0.109337
0.00720497
0.1088
0.00694802
0.108268
0.00669877
0.107744
0.00645705
0.107227
0.00622263
0.106718
0.00599529
0.106219
0.00577478
0.105729
0.00556086
0.105249
0.00535328
0.10478
0.00515178
0.104321
0.00495608
0.103873
0.00476594
0.103437
0.00458108
0.103011
0.00440125
0.102598
0.00422618
0.102196
0.00405562
0.101805
0.00388931
0.101426
0.00372699
0.10106
0.00356841
0.100705
0.00341331
0.100361
0.00326144
0.10003
0.00311255
0.0997104
0.00296638
0.0994027
0.00282268
0.0991068
0.0026812
0.0988228
0.00254166
0.0985505
0.00240381
0.0982901
0.00226738
0.0980414
0.00213208
0.0978046
0.00199762
0.0975796
0.00186371
0.0973663
0.00173003
0.0971649
0.00159624
0.0969753
0.00146201
0.0967975
0.00132695
0.0966316
0.00119066
0.0964776
0.00105271
0.0963355
0.000912646
0.0962052
0.00076995
0.0960868
0.000624072
0.0959801
0.000474409
0.0958852
0.000320297
0.0958019
0.000161009
0.09573
-4.24876e-06
0.0956691
-0.000176345
0.0956189
-0.00035622
0.0955786
-0.000544883
0.0955475
-0.000743399
0.0955245
-0.000952868
0.095508
-0.00117439
0.0954962
-0.00140898
0.0954868
-0.00165754
0.0954769
-0.00192067
0.0954632
-0.00219857
0.0954421
-0.00249082
0.0954096
-0.00279623
0.0953619
-0.00311261
0.095296
-0.00343671
-0.00376425
0.0952098
0.1001
0.000717635
0.100406
0.00216891
0.100913
0.0036073
0.101606
0.00499963
0.102461
0.00631936
0.10345
0.0075466
0.104541
0.00866721
0.105704
0.00967235
0.106906
0.0105578
0.10812
0.0113231
0.109318
0.0119706
0.110478
0.0125048
0.11158
0.0129319
0.11261
0.0132592
0.113555
0.0134947
0.114407
0.0136467
0.115162
0.0137238
0.115817
0.0137345
0.116373
0.0136868
0.116831
0.0135885
0.117196
0.0134467
0.117471
0.0132682
0.117663
0.013059
0.117776
0.0128243
0.117818
0.0125692
0.117795
0.0122979
0.117712
0.012014
0.117575
0.0117208
0.117391
0.0114212
0.117163
0.0111175
0.116899
0.0108117
0.116601
0.0105056
0.116276
0.0102006
0.115925
0.00989795
0.115554
0.00959855
0.115165
0.00930323
0.114762
0.00901262
0.114348
0.00872722
0.113924
0.00844742
0.113493
0.00817348
0.113057
0.00790562
0.112618
0.00764395
0.112178
0.00738853
0.111737
0.00713937
0.111298
0.00689644
0.110861
0.00665967
0.110427
0.00642897
0.109997
0.00620419
0.109573
0.00598521
0.109155
0.00577186
0.108742
0.00556396
0.108337
0.00536133
0.107939
0.00516377
0.107549
0.00497108
0.107167
0.00478304
0.106794
0.00459944
0.10643
0.00442008
0.106074
0.00424471
0.105728
0.00407313
0.105391
0.0039051
0.105064
0.00374039
0.104747
0.00357878
0.10444
0.00342002
0.104142
0.00326389
0.103855
0.00311013
0.103577
0.0029585
0.10331
0.00280875
0.103053
0.00266061
0.102807
0.00251384
0.102571
0.00236814
0.102345
0.00222324
0.10213
0.00207883
0.101926
0.00193461
0.101732
0.00179025
0.101548
0.0016454
0.101375
0.0014997
0.101213
0.00135275
0.101062
0.00120413
0.100921
0.00105339
0.100791
0.000900051
0.100672
0.000743577
0.100563
0.000583403
0.100464
0.000418914
0.100376
0.000249447
0.100297
7.42865e-05
0.100228
-0.000107331
0.100168
-0.000296214
0.100116
-0.000493207
0.100072
-0.000699175
0.100034
-0.000914975
0.100001
-0.00114142
0.0999714