/*--------------------------------*- C++ -*----------------------------------*\
| =========                 |                                                 |
| \\      /  F ield         | OpenFOAM: The Open Source CFD Toolbox           |
|  \\    /   O peration     | Version:  2406                                  |
|   \\  /    A nd           | Website:  www.openfoam.com                      |
|    \\/     M anipulation  |                                                 |
\*---------------------------------------------------------------------------*/
FoamFile
{
    version     2.0;
    format      ascii;
    arch        "LSB;label=32;scalar=64";
    class       volVectorField;
    location    "500";
    object      U;
}
// * * * * * * * * * * * * * * * * * * * * * * * * * * * * * * * * * * * * * //

dimensions      [0 1 -1 0 0 0 0];

internalField   nonuniform List<vector> 
150000
(
(7.94097 0.953545 0)
(6.6975 1.02915 0)
(5.1775 0.57843 0)
(3.90219 0.294371 0)
(3.11149 0.166102 0)
(2.60342 0.0998774 0)
(2.24735 0.062435 0)
(1.98823 0.0414173 0)
(1.79346 0.0293159 0)
(1.64158 0.0219108 0)
(1.51935 0.0170947 0)
(1.41852 0.013793 0)
(1.33368 0.0114216 0)
(1.26115 0.00964885 0)
(1.19833 0.00827993 0)
(1.14331 0.00719507 0)
(1.09469 0.0063172 0)
(1.05139 0.00559461 0)
(1.01256 0.00499134 0)
(0.977532 0.0044816 0)
(0.945775 0.00404642 0)
(0.916848 0.00367151 0)
(0.890389 0.00334593 0)
(0.8661 0.00306115 0)
(0.843727 0.00281046 0)
(0.823058 0.00258848 0)
(0.80391 0.00239088 0)
(0.786127 0.00221411 0)
(0.769575 0.00205527 0)
(0.754136 0.00191194 0)
(0.739708 0.00178211 0)
(0.726201 0.00166408 0)
(0.713537 0.00155643 0)
(0.701644 0.00145792 0)
(0.690462 0.00136751 0)
(0.679935 0.00128431 0)
(0.670013 0.00120753 0)
(0.660652 0.00113651 0)
(0.651812 0.00107064 0)
(0.643457 0.00100942 0)
(0.635554 0.000952385 0)
(0.628073 0.00089914 0)
(0.620989 0.000849327 0)
(0.614276 0.00080263 0)
(0.607912 0.000758767 0)
(0.601877 0.000717485 0)
(0.596153 0.000678557 0)
(0.590721 0.000641778 0)
(0.585567 0.000606962 0)
(0.580677 0.000573942 0)
(0.576036 0.000542563 0)
(0.571634 0.000512687 0)
(0.567458 0.000484184 0)
(0.563499 0.000456936 0)
(0.559748 0.000430833 0)
(0.556196 0.000405775 0)
(0.552834 0.000381665 0)
(0.549657 0.000358416 0)
(0.546657 0.000335942 0)
(0.543828 0.000314165 0)
(0.541165 0.000293009 0)
(0.538663 0.0002724 0)
(0.536319 0.000252268 0)
(0.534127 0.000232542 0)
(0.532085 0.000213156 0)
(0.53019 0.000194039 0)
(0.52844 0.000175125 0)
(0.526832 0.000156341 0)
(0.525366 0.000137618 0)
(0.524041 0.000118878 0)
(0.522856 0.000100042 0)
(0.521811 8.10256e-05 0)
(0.520907 6.17351e-05 0)
(0.520147 4.2069e-05 0)
(0.519532 2.19147e-05 0)
(0.519064 1.14447e-06 0)
(0.518749 -2.03856e-05 0)
(0.51859 -4.28425e-05 0)
(0.518594 -6.64204e-05 0)
(0.518768 -9.13496e-05 0)
(0.519121 -0.000117903 0)
(0.519665 -0.000146408 0)
(0.520411 -0.000177266 0)
(0.521378 -0.000210969 0)
(0.522584 -0.00024814 0)
(0.524054 -0.000289587 0)
(0.52582 -0.000336409 0)
(0.52792 -0.000390198 0)
(0.530408 -0.000453475 0)
(0.533356 -0.000530639 0)
(0.536867 -0.000630122 0)
(0.541103 -0.000769209 0)
(0.546326 -0.000985016 0)
(0.553006 -0.00136132 0)
(0.562021 -0.0020981 0)
(0.575022 -0.00367 0)
(0.595223 -0.00715987 0)
(0.630449 -0.0158366 0)
(0.702832 -0.0464568 0)
(0.816153 -0.171753 0)
(10.2186 1.88712 0)
(10.3826 2.72494 0)
(9.6217 2.24107 0)
(8.4956 1.62033 0)
(7.47675 1.14056 0)
(6.64222 0.808017 0)
(5.96309 0.586473 0)
(5.4123 0.439622 0)
(4.96425 0.340488 0)
(4.59543 0.271585 0)
(4.28738 0.222122 0)
(4.02653 0.185479 0)
(3.80288 0.157548 0)
(3.60894 0.135718 0)
(3.43912 0.118289 0)
(3.2891 0.104119 0)
(3.15559 0.0924167 0)
(3.03596 0.0826244 0)
(2.92814 0.0743351 0)
(2.83046 0.0672471 0)
(2.74154 0.0611324 0)
(2.66027 0.0558154 0)
(2.5857 0.0511593 0)
(2.51705 0.0470557 0)
(2.45366 0.043418 0)
(2.39495 0.0401763 0)
(2.34045 0.0372735 0)
(2.28973 0.0346624 0)
(2.24243 0.032304 0)
(2.19823 0.0301658 0)
(2.15686 0.0282203 0)
(2.11807 0.0264443 0)
(2.08164 0.0248178 0)
(2.04739 0.023324 0)
(2.01513 0.0219483 0)
(1.98473 0.0206781 0)
(1.95604 0.0195023 0)
(1.92893 0.0184113 0)
(1.90331 0.0173969 0)
(1.87905 0.0164515 0)
(1.85609 0.0155687 0)
(1.83433 0.0147427 0)
(1.8137 0.0139683 0)
(1.79412 0.013241 0)
(1.77555 0.0125566 0)
(1.75791 0.0119114 0)
(1.74116 0.0113022 0)
(1.72525 0.0107258 0)
(1.71013 0.0101797 0)
(1.69577 0.00966121 0)
(1.68212 0.00916818 0)
(1.66916 0.00869852 0)
(1.65685 0.00825032 0)
(1.64516 0.00782183 0)
(1.63407 0.00741143 0)
(1.62354 0.0070176 0)
(1.61357 0.00663894 0)
(1.60412 0.00627414 0)
(1.59518 0.00592195 0)
(1.58673 0.0055812 0)
(1.57876 0.00525077 0)
(1.57125 0.00492959 0)
(1.56419 0.00461663 0)
(1.55756 0.00431088 0)
(1.55137 0.00401136 0)
(1.54559 0.00371709 0)
(1.54023 0.00342708 0)
(1.53527 0.00314037 0)
(1.53071 0.00285593 0)
(1.52656 0.00257272 0)
(1.5228 0.00228966 0)
(1.51943 0.00200557 0)
(1.51647 0.00171923 0)
(1.51391 0.00142926 0)
(1.51175 0.00113417 0)
(1.51001 0.000832295 0)
(1.50869 0.000521726 0)
(1.50781 0.000200289 0)
(1.50737 -0.000134551 0)
(1.50741 -0.000485786 0)
(1.50794 -0.000856989 0)
(1.509 -0.0012525 0)
(1.51061 -0.00167767 0)
(1.51282 -0.0021392 0)
(1.51568 -0.00264572 0)
(1.51926 -0.0032086 0)
(1.52363 -0.00384334 0)
(1.52891 -0.00457201 0)
(1.53524 -0.00542757 0)
(1.5428 -0.00646212 0)
(1.55185 -0.00776267 0)
(1.56278 -0.00948238 0)
(1.57617 -0.011903 0)
(1.59292 -0.0155613 0)
(1.61448 -0.0215092 0)
(1.64315 -0.0318318 0)
(1.68269 -0.0506194 0)
(1.73972 -0.0859202 0)
(1.82346 -0.154641 0)
(1.91844 -0.2903 0)
(10.1768 1.34551 0)
(10.7882 2.53794 0)
(10.9413 2.66463 0)
(10.5996 2.36739 0)
(10.0101 1.96116 0)
(9.34903 1.57588 0)
(8.70063 1.25808 0)
(8.10412 1.01154 0)
(7.57297 0.824062 0)
(7.10633 0.681473 0)
(6.69767 0.571987 0)
(6.33921 0.48673 0)
(6.02351 0.419291 0)
(5.74403 0.365108 0)
(5.49525 0.320932 0)
(5.27257 0.284429 0)
(5.07222 0.253898 0)
(4.89108 0.228084 0)
(4.72657 0.206046 0)
(4.57655 0.187066 0)
(4.43921 0.170592 0)
(4.31305 0.156192 0)
(4.1968 0.143522 0)
(4.08935 0.13231 0)
(3.98978 0.122334 0)
(3.89728 0.113416 0)
(3.81115 0.105405 0)
(3.73079 0.0981805 0)
(3.65567 0.0916392 0)
(3.58533 0.085695 0)
(3.51934 0.0802752 0)
(3.45735 0.075318 0)
(3.39904 0.0707704 0)
(3.3441 0.0665869 0)
(3.2923 0.0627282 0)
(3.24339 0.0591601 0)
(3.19717 0.055853 0)
(3.15344 0.0527809 0)
(3.11205 0.0499208 0)
(3.07282 0.0472527 0)
(3.03564 0.0447587 0)
(3.00035 0.0424229 0)
(2.96686 0.0402312 0)
(2.93505 0.038171 0)
(2.90483 0.036231 0)
(2.8761 0.0344011 0)
(2.84879 0.0326719 0)
(2.82281 0.0310352 0)
(2.79811 0.0294835 0)
(2.77461 0.0280098 0)
(2.75226 0.0266079 0)
(2.731 0.0252721 0)
(2.71078 0.023997 0)
(2.69156 0.0227778 0)
(2.6733 0.0216099 0)
(2.65594 0.0204891 0)
(2.63947 0.0194116 0)
(2.62385 0.0183737 0)
(2.60904 0.0173718 0)
(2.59502 0.0164028 0)
(2.58176 0.0154636 0)
(2.56924 0.0145511 0)
(2.55744 0.0136625 0)
(2.54634 0.0127949 0)
(2.53593 0.0119458 0)
(2.52619 0.0111123 0)
(2.5171 0.0102918 0)
(2.50867 0.00948151 0)
(2.50087 0.00867876 0)
(2.49371 0.00788065 0)
(2.48718 0.00708421 0)
(2.48128 0.00628629 0)
(2.47601 0.00548352 0)
(2.47138 0.00467224 0)
(2.46739 0.00384842 0)
(2.46404 0.00300757 0)
(2.46137 0.00214461 0)
(2.45937 0.00125374 0)
(2.45807 0.000328194 0)
(2.45751 -0.000639963 0)
(2.45771 -0.00166023 0)
(2.45871 -0.00274413 0)
(2.46057 -0.00390586 0)
(2.46334 -0.00516327 0)
(2.4671 -0.00653924 0)
(2.47194 -0.00806385 0)
(2.47799 -0.00977783 0)
(2.48538 -0.0117382 0)
(2.49431 -0.0140276 0)
(2.50505 -0.0167711 0)
(2.51792 -0.0201652 0)
(2.5334 -0.0245302 0)
(2.55215 -0.0304036 0)
(2.57507 -0.0387087 0)
(2.60343 -0.0510499 0)
(2.63888 -0.0702062 0)
(2.68338 -0.100869 0)
(2.73874 -0.150667 0)
(2.80379 -0.231193 0)
(2.86204 -0.353843 0)
(10.0798 0.823397 0)
(10.5966 1.9465 0)
(11.0631 2.45328 0)
(11.2348 2.53056 0)
(11.1193 2.36873 0)
(10.8128 2.10347 0)
(10.4013 1.81889 0)
(9.94666 1.55625 0)
(9.48832 1.32967 0)
(9.0481 1.14025 0)
(8.63625 0.983941 0)
(8.25638 0.855314 0)
(7.90853 0.74914 0)
(7.59098 0.660957 0)
(7.30127 0.587157 0)
(7.03674 0.524889 0)
(6.79477 0.471924 0)
(6.57298 0.426516 0)
(6.3692 0.3873 0)
(6.1815 0.353196 0)
(6.0082 0.323348 0)
(5.84782 0.297067 0)
(5.69905 0.273802 0)
(5.56076 0.2531 0)
(5.43194 0.234591 0)
(5.31172 0.217971 0)
(5.19932 0.202987 0)
(5.09405 0.189424 0)
(4.9953 0.177106 0)
(4.90254 0.16588 0)
(4.81527 0.155617 0)
(4.73307 0.146208 0)
(4.65555 0.137558 0)
(4.58236 0.129583 0)
(4.51318 0.122214 0)
(4.44774 0.115389 0)
(4.38578 0.109052 0)
(4.32706 0.103157 0)
(4.27137 0.0976606 0)
(4.21852 0.0925268 0)
(4.16833 0.0877222 0)
(4.12064 0.0832174 0)
(4.07531 0.0789862 0)
(4.03219 0.075005 0)
(3.99116 0.0712527 0)
(3.95212 0.0677102 0)
(3.91495 0.0643603 0)
(3.87955 0.0611874 0)
(3.84584 0.0581773 0)
(3.81373 0.0553169 0)
(3.78315 0.0525945 0)
(3.75403 0.0499991 0)
(3.7263 0.0475208 0)
(3.6999 0.0451504 0)
(3.67478 0.0428791 0)
(3.65088 0.0406991 0)
(3.62815 0.0386029 0)
(3.60656 0.0365836 0)
(3.58606 0.0346346 0)
(3.56662 0.0327497 0)
(3.5482 0.030923 0)
(3.53077 0.0291487 0)
(3.5143 0.0274215 0)
(3.49877 0.025736 0)
(3.48416 0.0240872 0)
(3.47045 0.0224698 0)
(3.45761 0.0208787 0)
(3.44565 0.019309 0)
(3.43453 0.0177552 0)
(3.42427 0.0162122 0)
(3.41484 0.0146743 0)
(3.40625 0.0131357 0)
(3.39849 0.01159 0)
(3.39157 0.0100305 0)
(3.3855 0.00844977 0)
(3.38029 0.00683949 0)
(3.37595 0.00519036 0)
(3.37249 0.00349175 0)
(3.36996 0.00173134 0)
(3.36837 -0.000105295 0)
(3.36777 -0.00203536 0)
(3.3682 -0.00407963 0)
(3.36972 -0.00626363 0)
(3.37241 -0.00861928 0)
(3.37634 -0.0111872 0)
(3.38164 -0.0140204 0)
(3.38842 -0.0171895 0)
(3.39685 -0.0207915 0)
(3.40715 -0.0249632 0)
(3.41957 -0.0299037 0)
(3.43446 -0.0359106 0)
(3.45225 -0.0434407 0)
(3.47347 -0.0532072 0)
(3.4988 -0.0663356 0)
(3.52897 -0.0845972 0)
(3.56463 -0.110722 0)
(3.60598 -0.148709 0)
(3.65183 -0.203889 0)
(3.69771 -0.281911 0)
(3.73177 -0.383673 0)
(10.0426 0.546318 0)
(10.395 1.45868 0)
(10.8535 2.05163 0)
(11.2147 2.33755 0)
(11.3915 2.39314 0)
(11.3902 2.30051 0)
(11.2487 2.12899 0)
(11.0102 1.9273 0)
(10.713 1.72434 0)
(10.3865 1.53478 0)
(10.0507 1.36464 0)
(9.71839 1.21519 0)
(9.39707 1.08529 0)
(9.0909 0.972878 0)
(8.80179 0.875624 0)
(8.53029 0.791321 0)
(8.27614 0.718 0)
(8.0386 0.653968 0)
(7.81675 0.597801 0)
(7.60952 0.548307 0)
(7.41586 0.504496 0)
(7.23475 0.465544 0)
(7.0652 0.430764 0)
(6.9063 0.399585 0)
(6.75723 0.371525 0)
(6.6172 0.34618 0)
(6.48552 0.323208 0)
(6.36155 0.302319 0)
(6.24471 0.283264 0)
(6.13447 0.265832 0)
(6.03036 0.24984 0)
(5.93193 0.235131 0)
(5.8388 0.221568 0)
(5.7506 0.209031 0)
(5.66699 0.197417 0)
(5.58769 0.186635 0)
(5.51241 0.176604 0)
(5.4409 0.167253 0)
(5.37294 0.158519 0)
(5.3083 0.150347 0)
(5.24679 0.142687 0)
(5.18823 0.135495 0)
(5.13247 0.12873 0)
(5.07934 0.122356 0)
(5.0287 0.116342 0)
(4.98042 0.110658 0)
(4.93439 0.105278 0)
(4.89049 0.100176 0)
(4.84862 0.0953328 0)
(4.80868 0.0907265 0)
(4.77058 0.0863391 0)
(4.73424 0.0821537 0)
(4.69959 0.0781547 0)
(4.66655 0.0743277 0)
(4.63506 0.0706592 0)
(4.60506 0.0671368 0)
(4.57649 0.0637488 0)
(4.54929 0.0604843 0)
(4.52343 0.057333 0)
(4.49885 0.054285 0)
(4.47553 0.051331 0)
(4.45341 0.0484623 0)
(4.43246 0.0456701 0)
(4.41267 0.0429462 0)
(4.39399 0.0402823 0)
(4.3764 0.0376706 0)
(4.35989 0.0351029 0)
(4.34443 0.0325714 0)
(4.33002 0.0300678 0)
(4.31663 0.0275838 0)
(4.30426 0.0251107 0)
(4.29291 0.0226395 0)
(4.28257 0.0201604 0)
(4.27324 0.017663 0)
(4.26493 0.0151358 0)
(4.25765 0.0125663 0)
(4.25142 0.00994021 0)
(4.24625 0.00724152 0)
(4.24217 0.00445163 0)
(4.23921 0.00154891 0)
(4.23742 -0.00149229 0)
(4.23684 -0.00470277 0)
(4.23753 -0.00812009 0)
(4.23956 -0.0117908 0)
(4.24303 -0.0157737 0)
(4.24804 -0.0201441 0)
(4.25472 -0.0250011 0)
(4.26322 -0.0304771 0)
(4.27375 -0.0367539 0)
(4.28652 -0.0440857 0)
(4.30182 -0.0528359 0)
(4.31996 -0.0635315 0)
(4.3413 -0.0769436 0)
(4.36618 -0.0942005 0)
(4.39482 -0.116927 0)
(4.42708 -0.147378 0)
(4.46212 -0.188442 0)
(4.49767 -0.243269 0)
(4.52919 -0.313953 0)
(4.54905 -0.398259 0)
(10.0236 0.385457 0)
(10.2537 1.09644 0)
(10.6178 1.64941 0)
(10.9919 2.0112 0)
(11.2854 2.19909 0)
(11.4636 2.24881 0)
(11.5247 2.20112 0)
(11.4832 2.09327 0)
(11.3613 1.954 0)
(11.1817 1.80297 0)
(10.9642 1.65242 0)
(10.724 1.50926 0)
(10.4727 1.37686 0)
(10.2183 1.25644 0)
(9.96636 1.14794 0)
(9.72048 1.05071 0)
(9.48291 0.963759 0)
(9.25496 0.886036 0)
(9.03727 0.816499 0)
(8.83004 0.754181 0)
(8.6332 0.698211 0)
(8.44649 0.647817 0)
(8.26951 0.602323 0)
(8.10184 0.561141 0)
(7.94301 0.52376 0)
(7.79252 0.489738 0)
(7.64991 0.458689 0)
(7.51472 0.430282 0)
(7.3865 0.404227 0)
(7.26483 0.38027 0)
(7.14932 0.358193 0)
(7.03959 0.337801 0)
(6.93531 0.318927 0)
(6.83615 0.30142 0)
(6.74181 0.285149 0)
(6.652 0.269999 0)
(6.56648 0.255865 0)
(6.48499 0.242656 0)
(6.40731 0.23029 0)
(6.33324 0.218695 0)
(6.26258 0.207803 0)
(6.19515 0.197556 0)
(6.13079 0.187902 0)
(6.06933 0.178791 0)
(6.01064 0.17018 0)
(5.95457 0.162031 0)
(5.901 0.154306 0)
(5.84982 0.146973 0)
(5.80092 0.140003 0)
(5.75419 0.133366 0)
(5.70954 0.127039 0)
(5.66688 0.120998 0)
(5.62613 0.115221 0)
(5.58721 0.109689 0)
(5.55005 0.104382 0)
(5.51458 0.0992829 0)
(5.48075 0.0943762 0)
(5.4485 0.0896463 0)
(5.41777 0.0850788 0)
(5.38851 0.0806599 0)
(5.36068 0.0763765 0)
(5.33424 0.0722163 0)
(5.30915 0.0681671 0)
(5.28538 0.0642173 0)
(5.26289 0.0603555 0)
(5.24166 0.0565703 0)
(5.22166 0.0528506 0)
(5.20287 0.0491852 0)
(5.18528 0.0455626 0)
(5.16887 0.0419714 0)
(5.15363 0.0383993 0)
(5.13954 0.0348337 0)
(5.12662 0.0312614 0)
(5.11485 0.0276678 0)
(5.10425 0.0240372 0)
(5.09481 0.0203526 0)
(5.08655 0.0165946 0)
(5.0795 0.0127414 0)
(5.07367 0.00876812 0)
(5.0691 0.0046459 0)
(5.06582 0.000340711 0)
(5.06389 -0.00418792 0)
(5.06335 -0.00898894 0)
(5.06428 -0.0141223 0)
(5.06675 -0.0196628 0)
(5.07087 -0.0257046 0)
(5.07675 -0.0323692 0)
(5.08451 -0.039815 0)
(5.09432 -0.0482527 0)
(5.10634 -0.0579662 0)
(5.12077 -0.0693434 0)
(5.1378 -0.0829182 0)
(5.15757 -0.0994256 0)
(5.18015 -0.119867 0)
(5.20538 -0.145573 0)
(5.23269 -0.17821 0)
(5.2608 -0.219657 0)
(5.28739 -0.27155 0)
(5.30878 -0.334281 0)
(5.32024 -0.405192 0)
(10.0134 0.28392 0)
(10.1646 0.837095 0)
(10.4345 1.31429 0)
(10.7555 1.67864 0)
(11.061 1.92444 0)
(11.3107 2.06203 0)
(11.4851 2.1102 0)
(11.5794 2.09111 0)
(11.5988 2.02583 0)
(11.5547 1.93182 0)
(11.4598 1.82231 0)
(11.3267 1.70664 0)
(11.1663 1.59099 0)
(10.9875 1.47921 0)
(10.7974 1.37345 0)
(10.6014 1.27478 0)
(10.4035 1.18354 0)
(10.2067 1.09964 0)
(10.0131 1.02274 0)
(9.82398 0.952396 0)
(9.64046 0.888075 0)
(9.46309 0.829254 0)
(9.29222 0.775424 0)
(9.128 0.726106 0)
(8.97046 0.680861 0)
(8.81952 0.639287 0)
(8.67504 0.601023 0)
(8.53683 0.565746 0)
(8.40467 0.533164 0)
(8.27835 0.50302 0)
(8.1576 0.475081 0)
(8.04221 0.449141 0)
(7.93192 0.425016 0)
(7.82649 0.402541 0)
(7.72571 0.381569 0)
(7.62935 0.361969 0)
(7.53721 0.34362 0)
(7.44908 0.326418 0)
(7.36476 0.310267 0)
(7.2841 0.295079 0)
(7.2069 0.280777 0)
(7.13301 0.26729 0)
(7.06228 0.254554 0)
(6.99456 0.24251 0)
(6.92973 0.231105 0)
(6.86764 0.220292 0)
(6.80819 0.210024 0)
(6.75126 0.200262 0)
(6.69674 0.190969 0)
(6.64454 0.182109 0)
(6.59456 0.173651 0)
(6.54671 0.165566 0)
(6.50092 0.157826 0)
(6.4571 0.150406 0)
(6.41518 0.143282 0)
(6.3751 0.136431 0)
(6.3368 0.129834 0)
(6.30021 0.123471 0)
(6.26528 0.117322 0)
(6.23196 0.11137 0)
(6.2002 0.105599 0)
(6.16997 0.0999922 0)
(6.14121 0.0945339 0)
(6.1139 0.089209 0)
(6.088 0.0840027 0)
(6.06348 0.0789004 0)
(6.04032 0.0738877 0)
(6.01849 0.0689498 0)
(5.99798 0.0640722 0)
(5.97876 0.0592397 0)
(5.96082 0.0544369 0)
(5.94416 0.0496474 0)
(5.92877 0.0448541 0)
(5.91464 0.0400386 0)
(5.90178 0.035181 0)
(5.8902 0.0302595 0)
(5.8799 0.0252498 0)
(5.87091 0.0201248 0)
(5.86324 0.0148535 0)
(5.85691 0.00940024 0)
(5.85197 0.00372347 0)
(5.84846 -0.00222586 0)
(5.84642 -0.00850635 0)
(5.84591 -0.015189 0)
(5.847 -0.0223607 0)
(5.84978 -0.0301295 0)
(5.85432 -0.0386311 0)
(5.86072 -0.0480387 0)
(5.8691 -0.0585747 0)
(5.87957 -0.0705287 0)
(5.89222 -0.0842792 0)
(5.90712 -0.100322 0)
(5.92426 -0.1193 0)
(5.9435 -0.142033 0)
(5.96447 -0.169528 0)
(5.98641 -0.202926 0)
(6.00802 -0.243346 0)
(6.02727 -0.291512 0)
(6.04146 -0.347096 0)
(6.04764 -0.407806 0)
(10.0083 0.218037 0)
(10.1103 0.65472 0)
(10.3067 1.05494 0)
(10.5624 1.38935 0)
(10.8344 1.64641 0)
(11.0904 1.82558 0)
(11.3083 1.9332 0)
(11.4751 1.98009 0)
(11.5859 1.97891 0)
(11.6421 1.94204 0)
(11.649 1.88035 0)
(11.6136 1.80274 0)
(11.5436 1.71605 0)
(11.4463 1.6253 0)
(11.3281 1.53402 0)
(11.1946 1.44456 0)
(11.0505 1.35843 0)
(10.8994 1.27651 0)
(10.7444 1.19925 0)
(10.5876 1.1268 0)
(10.431 1.05913 0)
(10.2758 0.996081 0)
(10.123 0.937433 0)
(9.97345 0.88292 0)
(9.82759 0.832263 0)
(9.68581 0.78518 0)
(9.54834 0.7414 0)
(9.41531 0.700662 0)
(9.28679 0.662722 0)
(9.16277 0.627352 0)
(9.04323 0.594343 0)
(8.92809 0.563501 0)
(8.81726 0.534652 0)
(8.71063 0.507633 0)
(8.60808 0.482297 0)
(8.50949 0.458511 0)
(8.41473 0.436151 0)
(8.32365 0.415107 0)
(8.23614 0.395277 0)
(8.15206 0.376568 0)
(8.07128 0.358894 0)
(7.99368 0.34218 0)
(7.91915 0.326352 0)
(7.84755 0.311348 0)
(7.77879 0.297106 0)
(7.71276 0.283571 0)
(7.64934 0.270694 0)
(7.58846 0.258426 0)
(7.53 0.246726 0)
(7.4739 0.235553 0)
(7.42005 0.224869 0)
(7.36838 0.214641 0)
(7.31882 0.204836 0)
(7.27129 0.195424 0)
(7.22574 0.186377 0)
(7.18208 0.177668 0)
(7.14027 0.169273 0)
(7.10026 0.161167 0)
(7.06197 0.153329 0)
(7.02538 0.145737 0)
(6.99043 0.13837 0)
(6.95708 0.131209 0)
(6.92529 0.124235 0)
(6.89502 0.11743 0)
(6.86625 0.110775 0)
(6.83894 0.104252 0)
(6.81307 0.0978439 0)
(6.78861 0.0915327 0)
(6.76555 0.0853003 0)
(6.74386 0.0791285 0)
(6.72354 0.0729983 0)
(6.70456 0.0668898 0)
(6.68693 0.0607823 0)
(6.67064 0.0546537 0)
(6.6557 0.0484799 0)
(6.64209 0.0422348 0)
(6.62985 0.0358898 0)
(6.61896 0.0294126 0)
(6.60946 0.0227669 0)
(6.60137 0.0159113 0)
(6.59471 0.00879782 0)
(6.58951 0.00137064 0)
(6.58582 -0.00643626 0)
(6.58369 -0.0147017 0)
(6.58315 -0.0235206 0)
(6.58428 -0.0330088 0)
(6.58713 -0.0433086 0)
(6.59176 -0.0545964 0)
(6.59825 -0.0670926 0)
(6.60662 -0.0810734 0)
(6.61691 -0.096885 0)
(6.62908 -0.114959 0)
(6.64302 -0.135826 0)
(6.65847 -0.160118 0)
(6.67496 -0.188551 0)
(6.69171 -0.221858 0)
(6.70754 -0.260645 0)
(6.72085 -0.305123 0)
(6.7297 -0.354722 0)
(6.73222 -0.407643 0)
(10.0055 0.173556 0)
(10.0768 0.525126 0)
(10.2204 0.858756 0)
(10.4186 1.1535 0)
(10.6449 1.39829 0)
(10.8768 1.589 0)
(11.0959 1.72618 0)
(11.2885 1.81404 0)
(11.4457 1.85908 0)
(11.5632 1.86882 0)
(11.6408 1.8508 0)
(11.6805 1.81197 0)
(11.6861 1.7583 0)
(11.6619 1.6947 0)
(11.6127 1.62507 0)
(11.543 1.55234 0)
(11.4568 1.47872 0)
(11.3578 1.40576 0)
(11.249 1.33455 0)
(11.1331 1.26579 0)
(11.0124 1.19994 0)
(10.8885 1.13723 0)
(10.7629 1.07776 0)
(10.6368 1.02155 0)
(10.5112 0.968515 0)
(10.3868 0.918559 0)
(10.2641 0.871543 0)
(10.1436 0.827316 0)
(10.0257 0.785719 0)
(9.91052 0.746593 0)
(9.79831 0.709779 0)
(9.68917 0.675126 0)
(9.58318 0.642489 0)
(9.48037 0.61173 0)
(9.38077 0.58272 0)
(9.28434 0.555338 0)
(9.19107 0.529472 0)
(9.1009 0.505015 0)
(9.01378 0.481869 0)
(8.92965 0.459946 0)
(8.84844 0.439159 0)
(8.77008 0.419432 0)
(8.6945 0.400692 0)
(8.62161 0.382871 0)
(8.55134 0.365909 0)
(8.48363 0.349745 0)
(8.41838 0.334328 0)
(8.35554 0.319608 0)
(8.29503 0.305536 0)
(8.23677 0.29207 0)
(8.18071 0.27917 0)
(8.12677 0.266797 0)
(8.0749 0.254916 0)
(8.02503 0.243493 0)
(7.97712 0.232497 0)
(7.9311 0.221897 0)
(7.88692 0.211665 0)
(7.84453 0.201775 0)
(7.80389 0.192202 0)
(7.76496 0.182919 0)
(7.72769 0.173905 0)
(7.69205 0.165137 0)
(7.65799 0.156591 0)
(7.62549 0.148248 0)
(7.59452 0.140085 0)
(7.56504 0.132082 0)
(7.53704 0.124219 0)
(7.51049 0.116474 0)
(7.48538 0.108827 0)
(7.46168 0.101256 0)
(7.43938 0.0937391 0)
(7.41848 0.0862533 0)
(7.39895 0.0787744 0)
(7.38081 0.0712769 0)
(7.36405 0.0637332 0)
(7.34866 0.0561134 0)
(7.33466 0.0483849 0)
(7.32206 0.0405112 0)
(7.31086 0.0324517 0)
(7.30109 0.0241603 0)
(7.29276 0.0155842 0)
(7.2859 0.00666279 0)
(7.28055 -0.00267498 0)
(7.27672 -0.0125124 0)
(7.27446 -0.0229482 0)
(7.2738 -0.0341005 0)
(7.27477 -0.0461109 0)
(7.27742 -0.0591509 0)
(7.28174 -0.0734276 0)
(7.28774 -0.0891918 0)
(7.29539 -0.106745 0)
(7.30457 -0.126447 0)
(7.31511 -0.148712 0)
(7.3267 -0.174007 0)
(7.33883 -0.202816 0)
(7.35081 -0.235575 0)
(7.36163 -0.272566 0)
(7.37008 -0.313736 0)
(7.37478 -0.358476 0)
(7.37452 -0.405419 0)
(10.004 0.142101 0)
(10.0556 0.430886 0)
(10.1623 0.710405 0)
(10.3152 0.966203 0)
(10.4981 1.18933 0)
(10.6963 1.37511 0)
(10.8963 1.52196 0)
(11.0867 1.6308 0)
(11.2583 1.70448 0)
(11.405 1.74704 0)
(11.5234 1.76312 0)
(11.6124 1.75748 0)
(11.6725 1.73461 0)
(11.7055 1.69859 0)
(11.7138 1.6529 0)
(11.7004 1.60046 0)
(11.6681 1.54364 0)
(11.6198 1.48429 0)
(11.5583 1.42386 0)
(11.4859 1.36343 0)
(11.4048 1.3038 0)
(11.3169 1.24554 0)
(11.2238 1.18905 0)
(11.127 1.13459 0)
(11.0275 1.08232 0)
(10.9263 1.0323 0)
(10.8244 0.984569 0)
(10.7223 0.939102 0)
(10.6206 0.895851 0)
(10.5197 0.854748 0)
(10.4201 0.815708 0)
(10.322 0.778644 0)
(10.2257 0.743459 0)
(10.1313 0.710057 0)
(10.039 0.678343 0)
(9.94893 0.648223 0)
(9.86107 0.619606 0)
(9.77553 0.592404 0)
(9.69232 0.566533 0)
(9.61147 0.541914 0)
(9.53296 0.518471 0)
(9.45681 0.496134 0)
(9.38297 0.474833 0)
(9.31143 0.454506 0)
(9.24216 0.435093 0)
(9.17512 0.416538 0)
(9.11027 0.398787 0)
(9.04757 0.381791 0)
(8.98697 0.365503 0)
(8.92844 0.349878 0)
(8.87193 0.334874 0)
(8.81739 0.320453 0)
(8.76479 0.306577 0)
(8.71407 0.29321 0)
(8.66521 0.280319 0)
(8.61814 0.267873 0)
(8.57285 0.255841 0)
(8.52928 0.244194 0)
(8.4874 0.232904 0)
(8.44718 0.221944 0)
(8.40859 0.211289 0)
(8.37159 0.200914 0)
(8.33615 0.190794 0)
(8.30224 0.180906 0)
(8.26985 0.171225 0)
(8.23894 0.16173 0)
(8.2095 0.152396 0)
(8.1815 0.1432 0)
(8.15494 0.134119 0)
(8.12979 0.125129 0)
(8.10604 0.116205 0)
(8.08368 0.107321 0)
(8.06271 0.0984501 0)
(8.04313 0.0895643 0)
(8.02492 0.0806326 0)
(8.00809 0.0716223 0)
(7.99264 0.0624972 0)
(7.97858 0.0532179 0)
(7.96593 0.0437402 0)
(7.95468 0.0340149 0)
(7.94485 0.0239861 0)
(7.93647 0.01359 0)
(7.92954 0.00275327 0)
(7.92409 -0.00860881 0)
(7.92013 -0.020595 0)
(7.91769 -0.0333211 0)
(7.91676 -0.0469228 0)
(7.91736 -0.0615599 0)
(7.91946 -0.0774199 0)
(7.92302 -0.0947219 0)
(7.92796 -0.113719 0)
(7.93414 -0.134698 0)
(7.94134 -0.157973 0)
(7.94924 -0.183872 0)
(7.95736 -0.212704 0)
(7.96509 -0.244706 0)
(7.97163 -0.279964 0)
(7.97605 -0.318297 0)
(7.9774 -0.359144 0)
(7.97485 -0.40147 0)
(10.003 0.11894 0)
(10.0416 0.360569 0)
(10.1226 0.597052 0)
(10.2414 0.818405 0)
(10.388 1.0178 0)
(10.5529 1.19108 0)
(10.7269 1.33612 0)
(10.9013 1.45246 0)
(11.0683 1.54106 0)
(11.2221 1.60387 0)
(11.3583 1.6435 0)
(11.474 1.66292 0)
(11.568 1.6652 0)
(11.64 1.65335 0)
(11.6908 1.63013 0)
(11.7215 1.59804 0)
(11.7339 1.55922 0)
(11.7297 1.51552 0)
(11.711 1.46845 0)
(11.6796 1.41925 0)
(11.6373 1.3689 0)
(11.5859 1.31818 0)
(11.5267 1.2677 0)
(11.4612 1.21791 0)
(11.3907 1.16915 0)
(11.3161 1.12166 0)
(11.2385 1.07562 0)
(11.1586 1.03113 0)
(11.077 0.98826 0)
(10.9945 0.947039 0)
(10.9115 0.90747 0)
(10.8285 0.869533 0)
(10.7457 0.833197 0)
(10.6635 0.798417 0)
(10.5822 0.765143 0)
(10.502 0.733318 0)
(10.423 0.702883 0)
(10.3454 0.673777 0)
(10.2693 0.64594 0)
(10.1948 0.61931 0)
(10.1219 0.593827 0)
(10.0507 0.569433 0)
(9.9813 0.546072 0)
(9.91364 0.523688 0)
(9.84778 0.502229 0)
(9.78372 0.481645 0)
(9.72145 0.461887 0)
(9.66098 0.442909 0)
(9.60229 0.424667 0)
(9.54537 0.407118 0)
(9.49021 0.390223 0)
(9.43678 0.373943 0)
(9.38506 0.358241 0)
(9.33503 0.343082 0)
(9.28668 0.328432 0)
(9.23996 0.31426 0)
(9.19487 0.300533 0)
(9.15137 0.287223 0)
(9.10945 0.274301 0)
(9.06907 0.261738 0)
(9.03022 0.249508 0)
(8.99287 0.237583 0)
(8.95701 0.225939 0)
(8.92261 0.21455 0)
(8.88965 0.20339 0)
(8.85813 0.192436 0)
(8.82801 0.18166 0)
(8.7993 0.171039 0)
(8.77196 0.160547 0)
(8.746 0.150158 0)
(8.72141 0.139845 0)
(8.69817 0.129581 0)
(8.67629 0.119335 0)
(8.65575 0.109077 0)
(8.63655 0.0987747 0)
(8.61871 0.0883924 0)
(8.6022 0.0778918 0)
(8.58705 0.067231 0)
(8.57326 0.056364 0)
(8.56083 0.0452394 0)
(8.54977 0.0337997 0)
(8.54009 0.0219803 0)
(8.5318 0.00970754 0)
(8.5249 -0.00310213 0)
(8.5194 -0.0165445 0)
(8.5153 -0.0307293 0)
(8.51258 -0.0457827 0)
(8.51123 -0.0618489 0)
(8.5112 -0.0790924 0)
(8.51242 -0.0976987 0)
(8.51479 -0.117873 0)
(8.51813 -0.139838 0)
(8.52222 -0.163823 0)
(8.52675 -0.190048 0)
(8.53129 -0.218696 0)
(8.53534 -0.249875 0)
(8.53825 -0.283556 0)
(8.53933 -0.319511 0)
(8.5379 -0.357249 0)
(8.5334 -0.395981 0)
(10.0023 0.101304 0)
(10.0321 0.306754 0)
(10.095 0.509075 0)
(10.1884 0.701252 0)
(10.3061 0.878148 0)
(10.4421 1.03636 0)
(10.59 1.17381 0)
(10.7435 1.28961 0)
(10.8968 1.38382 0)
(11.0447 1.45728 0)
(11.1832 1.51137 0)
(11.309 1.54782 0)
(11.4201 1.56862 0)
(11.5149 1.5758 0)
(11.5932 1.57139 0)
(11.6548 1.55733 0)
(11.7005 1.53537 0)
(11.731 1.50711 0)
(11.7474 1.47395 0)
(11.7511 1.43709 0)
(11.7432 1.39754 0)
(11.7251 1.35616 0)
(11.698 1.31365 0)
(11.6631 1.27058 0)
(11.6214 1.22741 0)
(11.5741 1.18451 0)
(11.5219 1.14215 0)
(11.4658 1.10055 0)
(11.4065 1.05989 0)
(11.3445 1.02027 0)
(11.2806 0.981779 0)
(11.2151 0.944473 0)
(11.1486 0.908381 0)
(11.0814 0.873517 0)
(11.0138 0.839877 0)
(10.9462 0.807448 0)
(10.8788 0.77621 0)
(10.8118 0.746133 0)
(10.7454 0.717184 0)
(10.6798 0.689327 0)
(10.6151 0.662523 0)
(10.5513 0.636732 0)
(10.4886 0.611913 0)
(10.4271 0.588025 0)
(10.3669 0.565025 0)
(10.3079 0.542874 0)
(10.2503 0.521532 0)
(10.194 0.500958 0)
(10.139 0.481115 0)
(10.0855 0.461966 0)
(10.0334 0.443475 0)
(9.98277 0.425605 0)
(9.93352 0.408324 0)
(9.88569 0.391598 0)
(9.83929 0.375395 0)
(9.79431 0.359685 0)
(9.75074 0.344437 0)
(9.70857 0.329621 0)
(9.6678 0.315211 0)
(9.62842 0.301176 0)
(9.59041 0.287491 0)
(9.55376 0.274128 0)
(9.51847 0.261061 0)
(9.48453 0.248264 0)
(9.45192 0.23571 0)
(9.42063 0.223375 0)
(9.39066 0.211231 0)
(9.362 0.199253 0)
(9.33464 0.187414 0)
(9.30857 0.175685 0)
(9.28379 0.16404 0)
(9.2603 0.152448 0)
(9.23808 0.140879 0)
(9.21715 0.129301 0)
(9.1975 0.117679 0)
(9.17912 0.105976 0)
(9.16202 0.0941528 0)
(9.14621 0.0821663 0)
(9.13168 0.0699692 0)
(9.11844 0.0575096 0)
(9.10649 0.0447299 0)
(9.09584 0.031566 0)
(9.08647 0.0179462 0)
(9.0784 0.00379005 0)
(9.07161 -0.0109929 0)
(9.06608 -0.0265041 0)
(9.0618 -0.0428577 0)
(9.05872 -0.0601805 0)
(9.05677 -0.0786132 0)
(9.05588 -0.0983086 0)
(9.05592 -0.119429 0)
(9.05672 -0.142142 0)
(9.05805 -0.166607 0)
(9.05963 -0.192966 0)
(9.0611 -0.221316 0)
(9.06203 -0.251678 0)
(9.06191 -0.283968 0)
(9.06023 -0.317945 0)
(9.0565 -0.353193 0)
(9.05033 -0.3891 0)
(10.0018 0.0874955 0)
(10.0254 0.264583 0)
(10.0752 0.439582 0)
(10.1499 0.607439 0)
(10.2453 0.764275 0)
(10.3573 0.907356 0)
(10.4819 1.03487 0)
(10.6144 1.14584 0)
(10.7506 1.23999 0)
(10.8864 1.31757 0)
(11.0184 1.37928 0)
(11.1435 1.42614 0)
(11.2596 1.45934 0)
(11.3648 1.48024 0)
(11.4581 1.49024 0)
(11.5387 1.49074 0)
(11.6064 1.48309 0)
(11.6615 1.46856 0)
(11.7042 1.44833 0)
(11.7353 1.42345 0)
(11.7554 1.39486 0)
(11.7654 1.36337 0)
(11.7662 1.32969 0)
(11.7586 1.29444 0)
(11.7435 1.25811 0)
(11.7218 1.22113 0)
(11.6943 1.18386 0)
(11.6616 1.1466 0)
(11.6245 1.10956 0)
(11.5837 1.07294 0)
(11.5396 1.03689 0)
(11.4929 1.00153 0)
(11.444 0.966933 0)
(11.3932 0.933173 0)
(11.3411 0.900293 0)
(11.2879 0.868322 0)
(11.2339 0.837276 0)
(11.1794 0.80716 0)
(11.1247 0.777972 0)
(11.0699 0.749702 0)
(11.0152 0.722336 0)
(10.9607 0.695853 0)
(10.9067 0.670232 0)
(10.8533 0.645447 0)
(10.8004 0.621472 0)
(10.7483 0.598278 0)
(10.697 0.575837 0)
(10.6466 0.554118 0)
(10.5971 0.533092 0)
(10.5487 0.512729 0)
(10.5012 0.492999 0)
(10.4548 0.473873 0)
(10.4094 0.45532 0)
(10.3652 0.437312 0)
(10.3221 0.41982 0)
(10.2802 0.402817 0)
(10.2394 0.386274 0)
(10.1997 0.370164 0)
(10.1613 0.35446 0)
(10.124 0.339136 0)
(10.0879 0.324165 0)
(10.053 0.309521 0)
(10.0193 0.295178 0)
(9.98672 0.28111 0)
(9.95536 0.267291 0)
(9.92518 0.253695 0)
(9.89618 0.240296 0)
(9.86837 0.227066 0)
(9.84174 0.21398 0)
(9.81628 0.201008 0)
(9.79201 0.188121 0)
(9.76891 0.175291 0)
(9.747 0.162484 0)
(9.72627 0.149669 0)
(9.70672 0.136809 0)
(9.68835 0.123868 0)
(9.67116 0.110805 0)
(9.65517 0.0975767 0)
(9.64036 0.0841365 0)
(9.62674 0.0704327 0)
(9.6143 0.0564089 0)
(9.60305 0.042003 0)
(9.59298 0.0271467 0)
(9.58407 0.0117643 0)
(9.57631 -0.00422775 0)
(9.56968 -0.0209213 0)
(9.56414 -0.0384171 0)
(9.55963 -0.0568246 0)
(9.55608 -0.076261 0)
(9.5534 -0.0968496 0)
(9.55147 -0.118715 0)
(9.5501 -0.14198 0)
(9.5491 -0.166752 0)
(9.54821 -0.193112 0)
(9.54712 -0.2211 0)
(9.54548 -0.250689 0)
(9.54289 -0.281764 0)
(9.53898 -0.314095 0)
(9.53337 -0.347331 0)
(9.52581 -0.380993 0)
(10.0015 0.0764289 0)
(10.0206 0.230827 0)
(10.0608 0.383715 0)
(10.1214 0.531354 0)
(10.1995 0.670774 0)
(10.2924 0.799781 0)
(10.3972 0.916845 0)
(10.5107 1.02104 0)
(10.6298 1.11195 0)
(10.7513 1.1896 0)
(10.8725 1.2543 0)
(10.9909 1.30665 0)
(11.1045 1.34738 0)
(11.2114 1.37737 0)
(11.3104 1.39757 0)
(11.4005 1.40898 0)
(11.4809 1.41256 0)
(11.5514 1.40931 0)
(11.6119 1.40013 0)
(11.6626 1.3859 0)
(11.7036 1.3674 0)
(11.7355 1.34537 0)
(11.7587 1.32044 0)
(11.7738 1.29321 0)
(11.7815 1.26416 0)
(11.7822 1.23375 0)
(11.7768 1.20234 0)
(11.7656 1.17027 0)
(11.7494 1.1378 0)
(11.7287 1.10516 0)
(11.704 1.07256 0)
(11.6758 1.04015 0)
(11.6445 1.00805 0)
(11.6106 0.976381 0)
(11.5744 0.94522 0)
(11.5364 0.914632 0)
(11.4967 0.884669 0)
(11.4558 0.855367 0)
(11.4138 0.826753 0)
(11.371 0.798843 0)
(11.3276 0.771646 0)
(11.2838 0.745164 0)
(11.2398 0.719394 0)
(11.1957 0.694329 0)
(11.1517 0.669958 0)
(11.1078 0.646267 0)
(11.0643 0.623239 0)
(11.0211 0.600855 0)
(10.9784 0.579097 0)
(10.9362 0.557943 0)
(10.8947 0.537371 0)
(10.8538 0.517358 0)
(10.8136 0.497881 0)
(10.7742 0.478917 0)
(10.7356 0.460441 0)
(10.6979 0.442431 0)
(10.661 0.424861 0)
(10.625 0.407708 0)
(10.5899 0.390947 0)