/*--------------------------------*- C++ -*----------------------------------*\
| =========                 |                                                 |
| \\      /  F ield         | OpenFOAM: The Open Source CFD Toolbox           |
|  \\    /   O peration     | Version:  2406                                  |
|   \\  /    A nd           | Website:  www.openfoam.com                      |
|    \\/     M anipulation  |                                                 |
\*---------------------------------------------------------------------------*/
FoamFile
{
    version     2.0;
    format      ascii;
    arch        "LSB;label=32;scalar=64";
    class       volScalarField;
    location    "250";
    object      p;
}
// * * * * * * * * * * * * * * * * * * * * * * * * * * * * * * * * * * * * * //

dimensions      [0 2 -2 0 0 0 0];

internalField   nonuniform List<scalar> 
150000
(
237.644
130.505
73.5149
50.2271
36.8725
28.0594
22.2912
18.3171
15.3683
13.06
11.1839
9.61361
8.26874
7.09597
6.05841
5.12946
4.28934
3.5229
2.81835
2.1663
1.5592
0.99086
0.456178
-0.0491078
-0.528588
-0.985308
-1.42187
-1.84053
-2.24321
-2.63162
-3.00722
-3.37133
-3.7251
-4.06954
-4.40557
-4.734
-5.05556
-5.37091
-5.68064
-5.98529
-6.28536
-6.5813
-6.8735
-7.16235
-7.44819
-7.73135
-8.01211
-8.29077
-8.56756
-8.84274
-9.11652
-9.38913
-9.66076
-9.9316
-10.2018
-10.4716
-10.7412
-11.0106
-11.2801
-11.5498
-11.8199
-12.0905
-12.3617
-12.6338
-12.9067
-13.1808
-13.4561
-13.7328
-14.0111
-14.291
-14.5729
-14.8567
-15.1428
-15.4313
-15.7224
-16.0162
-16.3132
-16.6133
-16.9171
-17.2246
-17.5362
-17.8523
-18.1732
-18.4994
-18.8312
-19.1692
-19.5139
-19.866
-20.2261
-20.5951
-20.9738
-21.3634
-21.7651
-22.1814
-22.6172
-23.0849
-23.6106
-24.2182
-24.9768
-26.8404
136.81
97.184
67.5899
51.0089
39.5921
31.1438
25.1035
20.7145
17.377
14.7434
12.6057
10.8272
9.31579
8.00858
6.86118
5.84141
4.92528
4.09458
3.33516
2.63584
1.9877
1.38346
0.817188
0.283928
-0.220454
-0.699453
-1.15604
-1.59276
-2.01182
-2.4151
-2.80429
-3.18083
-3.546
-3.90094
-4.24666
-4.58406
-4.91393
-5.23701
-5.55394
-5.86532
-6.17167
-6.47349
-6.77122
-7.06527
-7.35601
-7.64378
-7.92892
-8.21171
-8.49242
-8.77133
-9.04866
-9.32464
-9.5995
-9.87343
-10.1466
-10.4193
-10.6915
-10.9636
-11.2357
-11.5078
-11.7803
-12.0532
-12.3266
-12.6009
-12.876
-13.1522
-13.4296
-13.7083
-13.9886
-14.2705
-14.5544
-14.8402
-15.1283
-15.4189
-15.712
-16.008
-16.3071
-16.6095
-16.9155
-17.2254
-17.5396
-17.8584
-18.1822
-18.5115
-18.8467
-19.1885
-19.5375
-19.8945
-20.2605
-20.6365
-21.024
-21.4249
-21.8416
-22.2781
-22.7407
-23.2406
-23.7953
-24.431
-25.2498
-26.6141
88.2853
77.0529
62.4043
50.2616
40.6486
33.0218
27.1454
22.6307
19.088
16.2449
13.9175
11.9755
10.3258
8.9023
7.65684
6.55397
5.56699
4.67542
3.86334
3.11818
2.42986
1.79022
1.19256
0.631347
0.101944
-0.399545
-0.876431
-1.33154
-1.76732
-2.18586
-2.589
-2.97835
-3.35531
-3.72113
-4.0769
-4.42362
-4.76216
-5.0933
-5.41776
-5.73617
-6.04911
-6.35711
-6.66064
-6.96016
-7.25605
-7.5487
-7.83844
-8.12559
-8.41045
-8.69329
-8.97437
-9.25392
-9.53219
-9.80938
-10.0857
-10.3613
-10.6365
-10.9113
-11.1861
-11.4608
-11.7357
-12.0111
-12.2869
-12.5634
-12.8408
-13.1192
-13.3987
-13.6796
-13.9619
-14.246
-14.5319
-14.8198
-15.1099
-15.4025
-15.6977
-15.9958
-16.297
-16.6017
-16.9099
-17.2222
-17.5389
-17.8602
-18.1867
-18.5189
-18.8573
-19.2026
-19.5555
-19.9169
-20.2879
-20.67
-21.0648
-21.4746
-21.9026
-22.353
-22.8321
-23.3482
-23.9116
-24.5325
-25.2307
-26.0352
67.6513
64.0067
55.7837
47.0166
39.4356
33.0653
27.8147
23.55
20.0766
17.217
14.8339
12.8217
11.1
9.60801
8.29983
7.14053
6.1032
5.16685
4.31495
3.53433
2.81436
2.14638
1.52326
0.93911
0.388973
-0.13132
-0.625311
-1.09603
-1.54608
-1.97772
-2.39291
-2.79336
-3.18059
-3.55591
-3.92052
-4.27544
-4.62163
-4.95992
-5.29105
-5.61572
-5.93453
-6.24806
-6.55679
-6.86121
-7.16173
-7.45875
-7.75264
-8.04372
-8.33231
-8.6187
-8.90315
-9.18593
-9.46727
-9.7474
-10.0265
-10.3049
-10.5826
-10.8599
-11.1371
-11.4141
-11.6913
-11.9688
-12.2467
-12.5252
-12.8046
-13.0849
-13.3663
-13.649
-13.9332
-14.219
-14.5066
-14.7962
-15.0881
-15.3823
-15.6793
-15.979
-16.2819
-16.5883
-16.8983
-17.2123
-17.5307
-17.8539
-18.1823
-18.5165
-18.8569
-19.2043
-19.5594
-19.9233
-20.2969
-20.6816
-21.0792
-21.4917
-21.9216
-22.3721
-22.8467
-23.3485
-23.8786
-24.4306
-24.9847
-25.4966
54.9991
53.6696
49.0073
43.0486
37.354
32.2288
27.7306
23.8791
20.6167
17.8515
15.496
13.4751
11.7262
10.1987
8.8522
7.65479
6.58103
5.61064
4.72731
3.91787
3.17157
2.47956
1.83452
1.23036
0.661925
0.12488
-0.384479
-0.869321
-1.33238
-1.77602
-2.20231
-2.61304
-3.0098
-3.394
-3.76686
-4.12949
-4.48288
-4.82791
-5.16536
-5.49597
-5.82036
-6.13913
-6.45282
-6.76191
-7.06685
-7.36806
-7.66591
-7.96075
-8.25291
-8.54269
-8.83037
-9.11623
-9.40051
-9.68344
-9.96526
-10.2462
-10.5264
-10.8061
-11.0854
-11.3647
-11.6439
-11.9234
-12.2033
-12.4837
-12.7649
-13.0469
-13.3301
-13.6144
-13.9002
-14.1875
-14.4767
-14.7678
-15.0611
-15.3567
-15.655
-15.9561
-16.2603
-16.5679
-16.8792
-17.1944
-17.514
-17.8383
-18.1678
-18.5029
-18.8443
-19.1925
-19.5482
-19.9124
-20.286
-20.67
-21.0659
-21.4751
-21.8989
-22.3388
-22.7951
-23.2662
-23.7462
-24.2202
-24.6596
-25.0156
46.3005
45.8517
43.1834
39.1901
34.975
30.9193
27.1602
23.7849
20.813
18.2162
15.9504
13.9699
12.2316
10.6972
9.33391
8.11463
7.01676
6.02173
5.11422
4.28159
3.51337
2.80083
2.13666
1.51472
0.929806
0.377486
-0.146027
-0.643992
-1.11923
-1.57418
-2.01098
-2.43151
-2.8374
-3.23011
-3.61094
-3.98103
-4.34141
-4.69299
-5.03661
-5.37301
-5.70286
-6.02678
-6.34533
-6.65901
-6.9683
-7.27362
-7.57536
-7.8739
-8.16958
-8.4627
-8.75356
-9.04244
-9.3296
-9.61528
-9.89971
-10.1831
-10.4657
-10.7477
-11.0293
-11.3106
-11.5919
-11.8733
-12.155
-12.4372
-12.72
-13.0037
-13.2884
-13.5742
-13.8614
-14.1501
-14.4406
-14.7329
-15.0274
-15.3241
-15.6235
-15.9256
-16.2307
-16.5391
-16.8511
-17.1669
-17.487
-17.8117
-18.1414
-18.4765
-18.8175
-19.1651
-19.5197
-19.8821
-20.253
-20.6331
-21.0232
-21.424
-21.8356
-22.2576
-22.6879
-23.1217
-23.5493
-23.9538
-24.3078
-24.5722
40.1171
39.9889
38.3734
35.6414
32.5168
29.3343
26.2441
23.351
20.7098
18.3316
16.2045
14.3074
12.615
11.1017
9.74375
8.51969
7.41091
6.40142
5.47761
4.62792
3.84256
3.11323
2.43288
1.7955
1.19596
0.629846
0.0933636
-0.416774
-0.903421
-1.36907
-1.81589
-2.24581
-2.66051
-3.06148
-3.45007
-3.82745
-4.19469
-4.55272
-4.90242
-5.24455
-5.57981
-5.90885
-6.23222
-6.55048
-6.86409
-7.17351
-7.47915
-7.78137
-8.08055
-8.377
-8.67102
-8.96291
-9.25293
-9.54133
-9.82836
-10.1142
-10.3992
-10.6834
-10.9671
-11.2504
-11.5336
-11.8169
-12.1004
-12.3842
-12.6686
-12.9538
-13.2399
-13.527
-13.8155
-14.1053
-14.3969
-14.6902
-14.9856
-15.2831
-15.5832
-15.8859
-16.1915
-16.5002
-16.8124
-17.1282
-17.4481
-17.7724
-18.1013
-18.4353
-18.7747
-19.1201
-19.4718
-19.8304
-20.1961
-20.5694
-20.9503
-21.3387
-21.7338
-22.1336
-22.5343
-22.9296
-23.3088
-23.6555
-23.9472
-24.1554
35.4705
35.4413
34.3929
32.4698
30.1334
27.6381
25.1174
22.671
20.3644
18.2285
16.2717
14.4904
12.8737
11.4075
10.0763
8.86501
7.75941
6.7467
5.81549
4.95577
4.15883
3.4171
2.72404
2.07398
1.46199
0.883813
0.335732
-0.185491
-0.682691
-1.15835
-1.61466
-2.05356
-2.47674
-2.88574
-3.2819
-3.66644
-4.04043
-4.40486
-4.7606
-5.10845
-5.44912
-5.78327
-6.11149
-6.43434
-6.75231
-7.06586
-7.37541
-7.68136
-7.98406
-8.28386
-8.58107
-8.87598
-9.16887
-9.46
-9.74962
-10.038
-10.3252
-10.6117
-10.8974
-11.1828
-11.4679
-11.7529
-12.038
-12.3234
-12.6093
-12.8958
-13.1832
-13.4715
-13.761
-14.0518
-14.3442
-14.6383
-14.9342
-15.2323
-15.5327
-15.8356
-16.1412
-16.4498
-16.7616
-17.0768
-17.3957
-17.7187
-18.0459
-18.3777
-18.7144
-19.0562
-19.4034
-19.7561
-20.1146
-20.4786
-20.8477
-21.2211
-21.597
-21.9727
-22.3434
-22.7022
-23.0389
-23.3393
-23.5857
-23.7585
31.8062
31.8024
31.0792
29.6845
27.9118
25.9438
23.8886
21.8327
19.8395
17.9469
16.1741
14.5283
13.0091
11.6109
10.3256
9.14365
8.05536
7.05121
6.12231
5.2605
4.45844
3.70956
3.00803
2.34869
1.72701
1.13899
0.581088
0.0502052
-0.456406
-0.941176
-1.40626
-1.85356
-2.28479
-2.70147
-3.10495
-3.49645
-3.87707
-4.2478
-4.60952
-4.96305
-5.30912
-5.64841
-5.98151
-6.30898
-6.63135
-6.94907
-7.26259
-7.5723
-7.87859
-8.18178
-8.48221
-8.78018
-9.07598
-9.36986
-9.66208
-9.95288
-10.2425
-10.5311
-10.819
-11.1063
-11.3932
-11.6799
-11.9666
-12.2535
-12.5408
-12.8286
-13.117
-13.4064
-13.6967
-13.9883
-14.2813
-14.5759
-14.8722
-15.1704
-15.4708
-15.7735
-16.0786
-16.3866
-16.6974
-17.0113
-17.3287
-17.6495
-17.9742
-18.3027
-18.6355
-18.9724
-19.3136
-19.6591
-20.0086
-20.3615
-20.7171
-21.0739
-21.4297
-21.7811
-22.1231
-22.449
-22.7497
-23.0134
-23.227
-23.3767
28.8193
28.8195
28.2947
27.2524
25.8833
24.3156
22.6332
20.907
19.1931
17.5298
15.9403
14.438
13.0288
11.7132
10.4886
9.35013
8.29196
7.30769
6.39091
5.53541
4.73531
3.98521
3.28015
2.61566
1.98769
1.39263
0.827228
0.288589
-0.225877
-0.718481
-1.1913
-1.64617
-2.08477
-2.50858
-2.91895
-3.31708
-3.70406
-4.08089
-4.44845
-4.80757
-5.15897
-5.50334
-5.8413
-6.1734
-6.50017
-6.8221
-7.13961
-7.45313
-7.76302
-8.06965
-8.37335
-8.67441
-8.97314
-9.2698
-9.56464
-9.85792
-10.1499
-10.4407
-10.7306
-11.0198
-11.3085
-11.5969
-11.8852
-12.1735
-12.462
-12.7509
-13.0404
-13.3306
-13.6217
-13.9138
-14.2072
-14.502
-14.7984
-15.0964
-15.3964
-15.6985
-16.0028
-16.3096
-16.6189
-16.931
-17.246
-17.5641
-17.8853
-18.2097
-18.5375
-18.8685
-19.2027
-19.5396
-19.8789
-20.2197
-20.5609
-20.9005
-21.2362
-21.5642
-21.88
-22.1771
-22.4477
-22.6828
-22.8722
-23.0066
26.3252
26.3242
25.9274
25.1265
24.0494
22.786
21.3993
19.9461
18.4739
17.0178
15.6018
14.2417
12.9468
11.7218
10.5676
9.48304
8.46534
7.51075
6.61507
5.7739
4.98287
4.23775
3.53453
2.86947
2.23914
1.64037
1.07029
0.526282
0.00597227
-0.49278
-0.971912
-1.43318
-1.87816
-2.30829
-2.72487
-3.12907
-3.52197
-3.90453
-4.27763
-4.64209
-4.99864
-5.34796
-5.69066
-6.02731
-6.35844
-6.68452
-7.00601
-7.32332
-7.63683
-7.9469
-8.25386
-8.55803
-8.85969
-9.15914
-9.45661
-9.75237
-10.0466
-10.3397
-10.6316
-10.9227
-11.2132
-11.5032
-11.7929
-12.0825
-12.3722
-12.6621
-12.9525
-13.2434
-13.535
-13.8275
-14.1211
-14.4159
-14.712
-15.0097
-15.3089
-15.61
-15.9131
-16.2182
-16.5256
-16.8352
-17.1473
-17.4619
-17.779
-18.0986
-18.4206
-18.7449
-19.0711
-19.3987
-19.7271
-20.0552
-20.3816
-20.7042
-21.0205
-21.327
-21.6192
-21.8915
-22.1376
-22.3501
-22.5216
-22.6456
24.2043
24.2015
23.8915
23.2609
22.3985
21.3676
20.2152
18.9861
17.7194
16.4459
15.1884
13.963
12.7808
11.6485
10.5697
9.5456
8.57566
7.65828
6.79109
5.97128
5.1958
4.46155
3.76546
3.10456
2.47601
1.87718
1.30559
0.758956
0.235182
-0.267664
-0.751349
-1.21749
-1.66756
-2.1029
-2.52474
-2.93422
-3.33234
-3.72006
-4.09822
-4.46762
-4.82898
-5.18296
-5.53017
-5.87118
-6.2065
-6.53662
-6.86198
-7.18299
-7.50004
-7.81349
-8.12367
-8.43091
-8.73548
-9.03767
-9.33775
-9.63595
-9.93252
-10.2277
-10.5216
-10.8146
-11.1067
-11.3983
-11.6894
-11.9802
-12.271
-12.5618
-12.8529
-13.1443
-13.4363
-13.729
-14.0226
-14.3171
-14.6128
-14.9097
-15.2079
-15.5077
-15.8091
-16.1122
-16.4171
-16.7239
-17.0326
-17.3431
-17.6555
-17.9696
-18.2853
-18.6022
-18.9199
-19.2378
-19.5549
-19.8702
-20.182
-20.4883
-20.7866
-21.0734
-21.3449
-21.5963
-21.8223
-22.0171
-22.1753
-22.2924
22.3747
22.3705
22.1222
21.6152
20.9133
20.0619
19.0958
18.05
16.9564
15.8414
14.7254
13.6242
12.549
11.5077
10.5053
9.54459
8.62672
7.75163
6.91837
6.12543
5.3709
4.65268
3.96853
3.31621
2.69349
2.09824
1.52842
0.982088
0.457444
-0.0472028
-0.533418
-1.00265
-1.45625
-1.89544
-2.32136
-2.73506
-3.13752
-3.5296
-3.91215
-4.2859
-4.65155
-5.00976
-5.3611
-5.70613
-6.04537
-6.37928
-6.70829
-7.03283
-7.35327
-7.66997
-7.98325
-8.29344
-8.60083
-8.90569
-9.20828
-9.50885
-9.80764
-10.1049
-10.4007
-10.6954
-10.9892
-11.2822
-11.5746
-11.8665
-12.1582
-12.4499
-12.7415
-13.0334
-13.3256
-13.6183
-13.9116
-14.2056
-14.5006
-14.7965
-15.0934
-15.3916
-15.691
-15.9917
-16.2938
-16.5972
-16.9021
-17.2081
-17.5154
-17.8236
-18.1325
-18.4417
-18.7506
-19.0585
-19.3644
-19.6671
-19.965
-20.256
-20.5377
-20.8071
-21.0606
-21.2944
-21.5039
-21.685
-21.8333
-21.9457
20.7783
20.7734
20.5704
20.1553
19.5756
18.8642
18.0471
17.1515
16.2033
15.2246
14.2335
13.2444
12.2684
11.3137
10.3859
9.4889
8.62487
7.79487
6.99903
6.23686
5.50738
4.80929
4.1411
3.50122
2.88797
2.2997
1.73477
1.19162
0.668721
0.164646
-0.32196
-0.792368
-1.24777
-1.68926
-2.11789
-2.5346
-2.94029
-3.33578
-3.72185
-4.09919
-4.46848
-4.83031
-5.18526
-5.53386
-5.8766
-6.21394
-6.5463
-6.87408
-7.19765
-7.51737
-7.83356
-8.14652
-8.45656
-8.76393
-9.0689
-9.3717
-9.67258
-9.97175
-10.2694
-10.5658
-10.861
-11.1553
-11.4489
-11.7418
-12.0344
-12.3266
-12.6187
-12.9108
-13.203
-13.4955
-13.7884
-14.0818
-14.3757
-14.6704
-14.9658
-15.262
-15.5591
-15.8572
-16.1561
-16.4559
-16.7565
-17.0578
-17.3596
-17.6617
-17.9636
-18.2649
-18.5649
-18.8629
-19.1579
-19.4485
-19.7333
-20.0101
-20.2769
-20.5309
-20.769
-20.988
-21.1843
-21.3545
-21.4955
-21.6049
19.3722
19.3672
19.1984
18.8533
18.3682
17.7673
17.0702
16.2981
15.4718
14.61
13.7282
12.8393
11.9538
11.0797
10.2231
9.38808
8.57772
7.79377
7.03716
6.30815
5.60647
4.93151
4.28239
3.65804
3.05731
2.47896
1.92174
1.38439
0.865706
0.364489
-0.120398
-0.59004
-1.04547
-1.48765
-1.91751
-2.3359
-2.74362
-3.14143
-3.53003
-3.91008
-4.28219
-4.64693
-5.00484
-5.35643
-5.70215
-6.04244
-6.37771
-6.70835
-7.03471
-7.35714
-7.67594
-7.99142
-8.30387
-8.61353
-8.92067
-9.22552
-9.52831
-9.82926
-10.1286
-10.4264
-10.723
-11.0185
-11.313
-11.6068
-11.9
-12.1927
-12.485
-12.7772
-13.0693
-13.3614
-13.6536
-13.9461
-14.2389
-14.5321
-14.8257
-15.1198
-15.4143
-15.7094
-16.005
-16.3009
-16.5971
-16.8934
-17.1895
-17.4852
-17.78
-18.0735
-18.3648
-18.6532
-18.9377
-19.2169
-19.4895
-19.7535
-20.0069
-20.2475
-20.4725
-20.6792
-20.8647
-21.0265
-21.162
-21.2697
18.1242
18.1192
17.977
17.6863
17.2754
16.7628
16.1632
15.493
14.7694
14.0075
13.2209
12.421
11.6172
10.8173
10.0272
9.25134
8.49315
7.75486
7.03794
6.3432
5.67094
5.02106
4.39318
3.78669
3.20085
2.6348
2.08762
1.55836
1.04606
0.549773
0.0685621
-0.398479
-0.852223
-1.2935
-1.72312
-2.14182
-2.55031
-2.94929
-3.33937
-3.72115
-4.0952
-4.46205
-4.82218
-5.17607
-5.52416
-5.86684
-6.20452
-6.53754
-6.86626
-7.191
-7.51206
-7.82972
-8.14426
-8.45593
-8.76498
-9.07163
-9.3761
-9.6786
-9.97931
-10.2784
-10.5761
-10.8726
-11.168
-11.4624
-11.7561
-12.049
-12.3415
-12.6335
-12.9253
-13.2168
-13.5082
-13.7996
-14.091
-14.3825
-14.6741
-14.9658
-15.2577
-15.5496
-15.8416
-16.1334
-16.4251
-16.7162
-17.0066
-17.296
-17.5837
-17.8694
-18.1523
-18.4315
-18.706
-18.9747
-19.2361
-19.4886
-19.7303
-19.9591
-20.173
-20.3695
-20.5464
-20.7015
-20.8332
-20.94
17.0092
17.0045
16.8832
16.6353
16.2837
15.8424
15.3225
14.7371
14.1
13.4238
12.72
11.9986
11.2682
10.5358
9.80724
9.08704
8.37867
7.6847
7.00695
6.34662
5.70444
5.0807
4.47542
3.88836
3.31913
2.76717
2.23187
1.71254
1.20845
0.718874
0.243054
-0.219741
-0.670235
-1.10913
-1.5371
-1.9548
-2.36284
-2.76183
-3.15232
-3.53485
-3.90992
-4.27801
-4.63958
-4.99505
-5.34482
-5.68927
-6.02877
-6.36365
-6.69424
-7.02083
-7.34372
-7.66317
-7.97944
-8.29278
-8.60341
-8.91156
-9.21742
-9.5212
-9.82309
-10.1233
-10.4219
-10.7191
-11.0151
-11.3099
-11.6039
-11.8969
-12.1893
-12.481
-12.7722
-13.0629
-13.3533
-13.6434
-13.9332
-14.2229
-14.5123
-14.8015
-15.0904
-15.3791
-15.6673
-15.955
-16.242
-16.528
-16.8127
-17.0957
-17.3766
-17.6548
-17.9295
-18.2
-18.4653
-18.7243
-18.9755
-19.2177
-19.449
-19.6678
-19.8722
-20.0603
-20.2303
-20.3804
-20.5092
-20.616
16.0075
16.0031
15.8986
15.6851
15.3812
14.998
14.544
14.0294
13.4655
12.8629
12.2311
11.5789
10.914
10.2429
9.57087
8.90241
8.24102
7.58942
6.94964
6.32317
5.71101
5.11377
4.53177
3.96508
3.41357
2.87697
2.35491
1.84691
1.35248
0.871048
0.402049
-0.0550992
-0.500981
-0.936173
-1.36124
-1.77673
-2.18318
-2.5811
-2.97097
-3.35328
-3.72846
-4.09695
-4.45914
-4.81544
-5.1662
-5.51176
-5.85248
-6.18864
-6.52056
-6.84851
-7.17276
-7.49356
-7.81116
-8.12578
-8.43764
-8.74694
-9.05388
-9.35865
-9.66142
-9.96235
-10.2616
-10.5593
-10.8557
-11.1508
-11.4447
-11.7376
-12.0297
-12.3208
-12.6113
-12.9011
-13.1903
-13.4789
-13.767
-14.0546
-14.3417
-14.6282
-14.9141
-15.1994
-15.4838
-15.7673
-16.0495
-16.3304
-16.6094
-16.8863
-17.1606
-17.4316
-17.6987
-17.961
-18.2178
-18.4678
-18.71
-18.943
-19.1653
-19.3755
-19.5719
-19.753
-19.9174
-20.0636
-20.1906
-20.2977
15.1033
15.0992
15.0084
14.8228
14.5579
14.2226
13.8232
13.3683
12.8666
12.3272
11.7581
11.167
10.5605
9.94458
9.32419
8.70354
8.08607
7.47454
6.87112
6.27744
5.69472
5.1238
4.56524
4.01933
3.48618
2.96573
2.45782
1.96218
1.47846
1.00629
0.54525
0.0948867
-0.345252
-0.775629
-1.1967
-1.60893
-2.01276
-2.40862
-2.79694
-3.17812
-3.55256
-3.92063
-4.28268
-4.63907
-4.99013
-5.33616
-5.67747
-6.01434
-6.34704
-6.67583
-7.00096
-7.32266
-7.64115
-7.95665
-8.26935
-8.57944
-8.88712
-9.19254
-9.49588
-9.79728
-10.0969
-10.3949
-10.6913
-10.9864
-11.2801
-11.5727
-11.8642
-12.1546
-12.4442
-12.7328
-13.0206
-13.3076
-13.5938
-13.8792
-14.1638
-14.4475
-14.7303
-15.0121
-15.2927
-15.5719
-15.8495
-16.1253
-16.3989
-16.6698
-16.9377
-17.2019
-17.4618
-17.7166
-17.9655
-18.2075
-18.4415
-18.6663
-18.8808
-19.0836
-19.2733
-19.4487
-19.6086
-19.7519
-19.8777
-19.9856
14.2838
14.28
14.2004
14.0377
13.8051
13.5095
13.156
12.7513
12.3029
11.818
11.3036
10.7663
10.2118
9.64559
9.07215
8.49545
7.91878
7.34486
6.77591
6.21365
5.65944
5.1143
4.57892
4.05381
3.53925
3.03537
2.54216
2.05952
1.58727
1.12518
0.672941
0.230247
-0.203249
-0.627905
-1.04409
-1.45216
-1.85249
-2.24545
-2.63138
-3.01063
-3.38355
-3.75045
-4.11165
-4.46746
-4.81815
-5.16402
-5.50534
-5.84234
-6.17529
-6.50442
-6.82994
-7.15207
-7.47102
-7.78697
-8.10012
-8.41064
-8.71869
-9.02443
-9.32802
-9.62959
-9.92928
-10.2272
-10.5235
-10.8183
-11.1116
-11.4036
-11.6943
-11.9838
-12.2722
-12.5595
-12.8457
-13.1309
-13.4151
-13.6982
-13.9802
-14.2611
-14.5407
-14.8189
-15.0957
-15.3707
-15.6437
-15.9145
-16.1828
-16.448
-16.7099
-16.9677
-17.2208
-17.4687
-17.7104
-17.9451
-18.1718
-18.3896
-18.5972
-18.7936
-18.9778
-19.1485
-19.3048
-19.4459
-19.5711
-19.6799
13.5385
13.535
13.4647
13.3211
13.1152
12.8529
12.5381
12.1763
11.7734
11.3358
10.8691
10.3792
9.87107
9.34951
8.81869
8.28224
7.74329
7.20447
6.66798
6.13559
5.60873
5.08852
4.57581
4.07122
3.57518
3.08796
2.60971
2.14045
1.68014
1.22866
0.785836
0.35146
-0.0747123
-0.492944
-0.903513
-1.30671
-1.70283
-2.09216
-2.47499
-2.85163
-3.22235
-3.58742
-3.94713
-4.30173
-4.65147
-4.99661
-5.33737
-5.67398
-6.00667
-6.33564
-6.66109
-6.98321
-7.30219
-7.6182
-7.93141
-8.24198
-8.55006
-8.85578
-9.1593
-9.46073
-9.7602
-10.0578
-10.3537
-10.6479
-10.9406
-11.2317
-11.5215
-11.8099
-12.0969
-12.3827
-12.6672
-12.9505
-13.2325
-13.5132
-13.7925
-14.0704
-14.3468
-14.6215
-14.8944
-15.1653
-15.4339
-15.6999
-15.963
-16.2228
-16.4789
-16.7307
-16.9777
-17.2191
-17.4543
-17.6825
-17.9027
-18.1142
-18.3159
-18.5069
-18.6863
-18.8532
-19.0067
-19.1462
-19.2711
-19.3812
12.8587
12.8555
12.793
12.6652
12.4819
12.2477
11.9658
11.6405
11.2769
10.8803
10.4555
10.0074
9.54051
9.05909
8.56688
8.06721
7.56302
7.05681
6.55073
6.04655
5.54573
5.04947
4.55869
4.07413
3.59631
3.12563
2.66235
2.20662
1.75848
1.31794
0.884925
0.459313
0.0409549
-0.37033
-0.774742
-1.1725
-1.56382
-1.94895
-2.32811
-2.70155
-3.06949
-3.43218
-3.78984
-4.14269
-4.49096
-4.83485
-5.17456
-5.5103
-5.84227
-6.17063
-6.49558
-6.81727
-7.13588
-7.45157
-7.76447
-8.07473
-8.3825
-8.68788
-8.99102
-9.29202
-9.59099
-9.88802
-10.1832
-10.4766
-10.7684
-11.0585
-11.3471
-11.6342
-11.9197
-12.2039
-12.4865
-12.7677
-13.0474
-13.3256
-13.6022
-13.8771
-14.1502
-14.4214
-14.6905
-14.9573
-15.2216
-15.483
-15.7412
-15.9959
-16.2466
-16.4928
-16.734
-16.9696
-17.1988
-17.4211
-17.6356
-17.8416
-18.0381
-18.2245
-18.3999
-18.5636
-18.7149
-18.8532
-18.9782
-19.0896
12.2371
12.2342
12.1782
12.0639
11.8996
11.6893
11.4354
11.1416
10.812
10.451
10.0629
9.65185
9.22177
8.7764
8.31913
7.85302
7.38077
6.90477
6.42706
5.94939
5.47324
4.99981
4.5301
4.06491
3.60486
3.15043
2.70196
2.25971
1.82381
1.39436
0.97136
0.554789
0.144569
-0.259404
-0.657263
-1.04916
-1.43525
-1.81572
-2.19075
-2.56052
-2.92523
-3.28506
-3.64021
-3.99086
-4.33719
-4.67938
-5.01762
-5.35207
-5.68289
-6.01025
-6.3343
-6.6552
-6.97308
-7.28808
-7.60033
-7.90997
-8.2171
-8.52185
-8.82432
-9.1246
-9.4228
-9.719
-10.0133
-10.3057
-10.5963
-10.8852
-11.1725
-11.458
-11.7419
-12.0242
-12.3049
-12.5839
-12.8612
-13.1368
-13.4106
-13.6825
-13.9524
-14.2201
-14.4855
-14.7483
-15.0084
-15.2653
-15.5189
-15.7687
-16.0144
-16.2554
-16.4913
-16.7215
-16.9454
-17.1624
-17.3718
-17.5729
-17.765
-17.9474
-18.1194
-18.2805
-18.43
-18.5676
-18.6928
-18.8056
11.6676
11.6649
11.6145
11.5116
11.3636
11.1736
10.9438
10.6771
10.3771
10.0473
9.69151
9.31323
8.91595
8.50296
8.0773
7.64175
7.19882
6.75072
6.2994
5.84657
5.39366
4.9419
4.49232
4.04575
3.60289
3.16427
2.73033
2.30137
1.87763
1.45926
1.04636
0.638969
0.237076
-0.159355
-0.550393
-0.936129
-1.31667
-1.69215
-2.06269
-2.42843
-2.78953
-3.14613
-3.49839
-3.84645
-4.19048
-4.53061
-4.867
-5.19978
-5.52911
-5.85512
-6.17794
-6.4977
-6.81452
-7.12853
-7.43983
-7.74854
-8.05477
-8.3586
-8.66014
-8.95946
-9.25665
-9.55179
-9.84493
-10.1361
-10.4255
-10.7129
-10.9986
-11.2825
-11.5646
-11.845
-12.1236
-12.4003
-12.6752
-12.9482
-13.2191
-13.488
-13.7547
-14.0189
-14.2807
-14.5396
-14.7956
-15.0483
-15.2975
-15.5427
-15.7836
-16.0198
-16.2508
-16.4761
-16.6952
-16.9074
-17.1122
-17.3091
-17.4973
-17.6763
-17.8455
-18.0044
-18.1526
-18.2896
-18.4153
-18.5294
11.1449
11.1424
11.0968
11.0037
10.8696
10.6972
10.4882
10.245
9.97069
9.66829
9.34094
8.99175
8.62376
8.23988
7.84281
7.43509
7.01901
6.59663
6.16981
5.74015
5.30908
4.87779
4.44734
4.01858
3.59224
3.16893
2.7491
2.33316
1.92139
1.514
1.11116
0.71297
0.31948
-0.0692882
-0.453347
-0.832734
-1.20751
-1.57775
-1.94354
-2.30499
-2.66219
-3.01527
-3.36434
-3.70952
-4.05093
-4.38869
-4.72293
-5.05375
-5.38128
-5.70564
-6.02694
-6.34528
-6.66076
-6.9735
-7.28359
-7.59113
-7.89619
-8.19887
-8.49924
-8.79737
-9.09334
-9.38721
-9.67902
-9.96883
-10.2567
-10.5426
-10.8266
-11.1087
-11.3889
-11.6672
-11.9436
-12.218
-12.4903
-12.7607
-13.0288
-13.2946
-13.5581
-13.819
-14.0772
-14.3324
-14.5845
-14.8332
-15.0781
-15.319
-15.5555
-15.7872
-16.0137
-16.2345
-16.4492
-16.6571
-16.8579
-17.051
-17.2358
-17.4118
-17.5786
-17.7358
-17.8829
-18.0196
-18.1458
-18.2613
10.6646
10.6623
10.6209
10.5361
10.414
10.2568
10.0658
9.84313
9.59131
9.31297
9.01079
8.68746
8.34565
7.98793
7.61673
7.23432
6.84282
6.44413
6.03998
5.63191
5.22127
4.80927
4.39692
3.98511
3.57459
3.16599
2.75983
2.35654
1.95645
1.55986
1.16695
0.777892
0.392791
0.0117179
-0.365291
-0.738227
-1.1071
-1.47195
-1.83282
-2.18977
-2.54288
-2.89222
-3.23787
-3.57993
-3.91849
-4.25363
-4.58547
-4.91409
-5.23958
-5.56205
-5.88157
-6.19825
-6.51217
-6.82341
-7.13206
-7.43819
-7.74188
-8.0432
-8.3422
-8.63896
-8.93352
-9.22594
-9.51626
-9.80451
-10.0907
-10.3749
-10.6571
-10.9373
-11.2155
-11.4917
-11.7658
-12.0378
-12.3076
-12.5752
-12.8405
-13.1034
-13.3637
-13.6213
-13.8761
-14.1277
-14.3761
-14.6209
-14.8618
-15.0987
-15.3311
-15.5586
-15.781
-15.9977
-16.2083
-16.4124
-16.6096
-16.7993
-16.9811
-17.1546
-17.3193
-17.475
-17.6212
-17.7578
-17.8845
-18.0013
10.2229
10.2208
10.1829
10.1054
9.99362
9.84958
9.67433
9.4696
9.23753
8.9804
8.70051
8.40021
8.08184
7.74766
7.39985
7.04047
6.67144
6.29452
5.91133
5.52331
5.13178
4.73787
4.34261
3.94688
3.55143
3.15692
2.7639
2.37283
1.9841
1.59802
1.21485
0.834794
0.457996
0.084576
-0.285386
-0.651838
-1.01475
-1.37413
-1.72997
-2.0823
-2.43116
-2.7766
-3.11868
-3.45744
-3.79296
-4.12531
-4.45456
-4.78078
-5.10403
-5.42441
-5.74197
-6.0568
-6.36895
-6.67851
-6.98553
-7.29007
-7.59221
-7.89198
-8.18946
-8.48467
-8.77767
-9.0685
-9.35718
-9.64374
-9.9282
-10.2106
-10.4909
-10.7691
-11.0452
-11.3191
-11.5909
-11.8605
-12.1278
-12.3927
-12.6552
-12.9151
-13.1723
-13.4267
-13.6781
-13.9263
-14.1711
-14.4122
-14.6495
-14.8825
-15.111
-15.3347
-15.5532
-15.7662
-15.9732
-16.1738
-16.3677
-16.5544
-16.7336
-16.9048
-17.0678
-17.2222
-17.3678
-17.5043
-17.6316
-17.7497
9.8164
9.81444
9.77963
9.70849
9.60574
9.47319
9.31167
9.12266
8.90799
8.66961
8.40952
8.12975
7.83237
7.51939
7.19275
6.85431
6.50581
6.14889
5.78504
5.41563
5.04189
4.66493
4.28575
3.9052
3.52406
3.14298
2.76255
2.38324
2.00548
1.62961
1.25593
0.884672
0.516033
0.150166
-0.212811
-0.572807
-0.929761
-1.28363
-1.63439
-1.98204
-2.32657
-2.66802
-3.0064
-3.34175
-3.6741
-4.00351
-4.33003
-4.65369
-4.97457
-5.2927
-5.60814
-5.92096
-6.2312
-6.53891
-6.84415
-7.14696
-7.4474
-7.74549
-8.0413
-8.33484
-8.62615
-8.91526
-9.20219
-9.48696
-9.76957
-10.05
-10.3283
-10.6045
-10.8784
-11.1501
-11.4196
-11.6867
-11.9514
-12.2137
-12.4734
-12.7304
-12.9846
-13.2359
-13.4841
-13.7289
-13.9703
-14.2079
-14.4416
-14.6711
-14.896
-15.1161
-15.3311
-15.5406
-15.7442
-15.9417
-16.1327
-16.3168
-16.4936
-16.6629
-16.8243
-16.9777
-17.1227
-17.2592
-17.3871
-17.5064
9.44228
9.44046
9.40834
9.34272
9.24786
9.12537
8.97591
8.80074
8.60142
8.37965
8.13716
7.87574
7.59719
7.30331
6.99582
6.67642
6.34668
6.00811
5.66209
5.3099
4.95271
4.59159
4.22748
3.86125
3.49364
3.12533
2.7569
2.38886
2.02164
1.65563
1.29115
0.928454
0.567783
0.209321
-0.146781
-0.500399
-0.851438
-1.19982
-1.5455
-1.88844
-2.22861
-2.56601
-2.90063
-3.23248
-3.56159
-3.88796
-4.21164
-4.53265
-4.85102
-5.1668
-5.48001
-5.79069
-6.0989
-6.40465
-6.70799
-7.00895
-7.30757
-7.60387
-7.8979
-8.18966
-8.47918
-8.76649
-9.05158
-9.33447
-9.61516
-9.89364
-10.1699
-10.4439
-10.7157
-10.9851
-11.2522
-11.5169
-11.7791
-12.0387
-12.2956
-12.5498
-12.8011
-13.0494
-13.2944
-13.5361
-13.7742
-14.0085
-14.2389
-14.4649
-14.6865
-14.9033
-15.115
-15.3213
-15.5219
-15.7166
-15.9049
-16.0865
-16.2613
-16.4288
-16.5889
-16.7414
-16.8859
-17.0225
-17.151
-17.2714
9.09801
9.0963
9.06655
9.00575
8.91782
8.80416
8.66532
8.50236
8.31664
8.10962
7.88282
7.6378
7.37616
7.09949
6.80935
6.50724
6.19463
5.87287
5.54326
5.207
4.86517
4.51881
4.16882
3.81603
3.4612
3.10498
2.74796
2.39067
2.03355
1.67701
1.32139
0.966992
0.614062
0.262818
-0.0865577
-0.433914
-0.779125
-1.12209
-1.46273
-1.80097
-2.13678
-2.47011
-2.80094
-3.12926
-3.45507
-3.77835
-4.09913
-4.41741
-4.7332
-5.04654
-5.35743
-5.6659
-5.97197
-6.27567
-6.57702
-6.87604
-7.17276
-7.46719
-7.75935
-8.04925
-8.33691
-8.62233
-8.90552
-9.18647
-9.46518
-9.74163
-10.0158
-10.2877
-10.5572
-10.8244
-11.0891
-11.3513
-11.611
-11.868
-12.1223
-12.3737
-12.6222
-12.8675
-13.1095
-13.3482
-13.5832
-13.8144
-14.0415
-14.2645
-14.4829
-14.6966
-14.9052
-15.1086
-15.3065
-15.4985
-15.6844
-15.8639
-16.0368
-16.2028
-16.3617
-16.5133
-16.6575
-16.7942
-16.9232
-17.0446
8.78138
8.77978
8.75211
8.69555
8.61371
8.50784
8.37836
8.2262
8.05254
7.85864
7.64584
7.41551
7.16907
6.90792
6.63348
6.3471
6.0501
5.74375
5.42923
5.10766
4.78008
4.44744
4.11063
3.77045
3.42762
3.08282
2.73661
2.38954
2.04206
1.69458
1.34748
1.00107
0.65562
0.311377
-0.031455
-0.372699
-0.712204
-1.04984
-1.38551
-1.71912
-2.05059
-2.37988
-2.70693
-3.0317
-3.35418
-3.67435
-3.99219
-4.30769
-4.62087
-4.93171
-5.24022
-5.54641
-5.8503
-6.15188
-6.45118
-6.7482
-7.04295
-7.33544
-7.62567
-7.91366
-8.1994
-8.48289
-8.76412
-9.04309
-9.31979
-9.59419
-9.86626
-10.136
-10.4033
-10.6682
-10.9306
-11.1904
-11.4476
-11.702
-11.9537
-12.2024
-12.4481
-12.6906
-12.9298
-13.1655
-13.3975
-13.6257
-13.8499
-14.0699
-14.2854
-14.4962
-14.702
-14.9027
-15.098
-15.2876
-15.4713
-15.6488
-15.82
-15.9846
-16.1424
-16.2934
-16.4373
-16.574
-16.7036
-16.8259
8.49046
8.48896
8.46312
8.4103
8.33383
8.23483
8.11365
7.97106
7.80811
7.62591
7.42562
7.20845
6.97567
6.72853
6.46829
6.1962
5.91344
5.62119
5.32052
5.0125
4.69808
4.37819
4.05365
3.72526
3.3937
3.05963
2.72364
2.38625
2.04792
1.7091
1.37014
1.03139
0.693145
0.355659
0.0191624
-0.316146
-0.650093
-0.98253
-1.31333
-1.64238
-1.96958
-2.29487
-2.61817
-2.93942
-3.25859
-3.57563
-3.89052
-4.20324
-4.51376
-4.82208
-5.12818
-5.43206
-5.73372
-6.03315
-6.33035
-6.62532
-6.91806
-7.20856
-7.49683
-7.78286
-8.06665
-8.34817
-8.62743
-8.90439
-9.17905
-9.45138
-9.72134
-9.9889
-10.254
-10.5166
-10.7767
-11.0341
-11.2889
-11.5408
-11.7899
-12.036
-12.279
-12.5188
-12.7552
-12.9882
-13.2174
-13.4428
-13.6642
-13.8813
-14.094
-14.3021
-14.5054
-14.7036
-14.8965
-15.0839
-15.2656
-15.4413
-15.6109
-15.7743
-15.9312
-16.0815
-16.2251
-16.3619
-16.4919
-16.6151
8.22355
8.22213
8.19791
8.14839
8.07668
7.98376
7.86992
7.73584
7.58243
7.41065
7.22155
7.01619
6.79569
6.56119
6.31381
6.05469
5.78491
5.50553
5.21758
4.92201
4.61976
4.31166
3.99854
3.68113
3.36011
3.03613
2.70975
2.38149
2.05184
1.72123
1.39003
1.05861
0.72726
0.396268
0.0658771
-0.263695
-0.592257
-0.919639
-1.24569
-1.57029
-1.89331
-2.21467
-2.53427
-2.85204
-3.16793
-3.48187
-3.79383
-4.10376
-4.41163
-4.71742
-5.0211
-5.32265
-5.62206
-5.91931
-6.21439
-6.50728
-6.79799
-7.08649
-7.37277
-7.65682
-7.93862
-8.21817
-8.49543
-8.77038
-9.043
-9.31325
-9.58111
-9.84652
-10.1094
-10.3698
-10.6276
-10.8827
-11.1351
-11.3846
-11.6312
-11.8747
-12.1152
-12.3524
-12.5861
-12.8164
-13.0429
-13.2657
-13.4844
-13.6989
-13.909
-14.1146
-14.3154
-14.5113
-14.702
-14.8873
-15.0671
-15.2413
-15.4095
-15.5716
-15.7276
-15.8774
-16.0207
-16.1576
-16.288
-16.412
7.97914
7.9778
7.95501
7.90842
7.8409
7.75338
7.64606
7.51954
7.37462
7.21216
7.03307
6.8383
6.62885
6.40575
6.17001
5.92265
5.66467
5.39706
5.12074
4.83662
4.54557
4.24839
3.94584
3.63865
3.32746
3.01291
2.69554
2.37589
2.05443
1.73158
1.40776
1.0833
0.758535
0.433756
0.109222
-0.214834
-0.538202
-0.860696
-1.18215
-1.50242
-1.82137
-2.13888
-2.45486
-2.76922
-3.08188
-3.39276
-3.70181
-4.00898
-4.31422
-4.61748
-4.91875
-5.21797
-5.51513
-5.81019
-6.10314
-6.39396
-6.68262
-6.9691
-7.25338
-7.53544
-7.81527
-8.09282
-8.36808
-8.64102
-8.91161
-9.1798
-9.44556
-9.70885
-9.96961