/*--------------------------------*- C++ -*----------------------------------*\
| =========                 |                                                 |
| \\      /  F ield         | OpenFOAM: The Open Source CFD Toolbox           |
|  \\    /   O peration     | Version:  2406                                  |
|   \\  /    A nd           | Website:  www.openfoam.com                      |
|    \\/     M anipulation  |                                                 |
\*---------------------------------------------------------------------------*/
FoamFile
{
    version     2.0;
    format      ascii;
    arch        "LSB;label=32;scalar=64";
    class       surfaceScalarField;
    location    "250";
    object      phi;
}
// * * * * * * * * * * * * * * * * * * * * * * * * * * * * * * * * * * * * * //

dimensions      [0 3 -1 0 0 0 0];

oriented        oriented;

internalField   nonuniform List<scalar> 
299000
(
0.0796643
0.0203357
0.0586792
0.0209852
0.0442548
0.0144244
0.034802
0.00945272
0.0285001
0.0063019
0.0241899
0.00431023
0.0211383
0.00305164
0.0188888
0.00224946
0.0171649
0.0017239
0.0157988
0.00136614
0.014686
0.00111279
0.0137592
0.000926779
0.0129734
0.000785831
0.0122973
0.000676103
0.0117085
0.000588719
0.0111907
0.000517794
0.0107314
0.0004593
0.0103211
0.000410398
0.00995202
0.000369034
0.00961833
0.000333687
0.00931512
0.000303211
0.0090384
0.000276724
0.00878486
0.000253539
0.00855174
0.000233114
0.00833673
0.000215015
0.00813784
0.000198891
0.00795338
0.000184456
0.0077819
0.000171476
0.00762215
0.000159756
0.00747302
0.000149132
0.00733355
0.000139467
0.0072029
0.000130646
0.00708034
0.000122569
0.00696518
0.000115152
0.00685686
0.000108322
0.00675485
0.000102016
0.00665867
9.618e-05
0.0065679
9.07654e-05
0.00648217
8.57305e-05
0.00640113
8.10387e-05
0.00632447
7.66575e-05
0.00625192
7.2558e-05
0.0061832
6.87146e-05
0.0061181
6.51045e-05
0.00605639
6.17073e-05
0.00599789
5.85045e-05
0.00594241
5.54796e-05
0.00588979
5.26176e-05
0.00583988
4.9905e-05
0.00579255
4.73295e-05
0.00574767
4.48797e-05
0.00570513
4.25454e-05
0.00566481
4.03171e-05
0.00562663
3.8186e-05
0.00559048
3.61441e-05
0.0055563
3.41839e-05
0.005524
3.22983e-05
0.00549352
3.04808e-05
0.00546479
2.87253e-05
0.00543777
2.70257e-05
0.00541239
2.53767e-05
0.00538862
2.37726e-05
0.00536641
2.22086e-05
0.00534573
2.06794e-05
0.00532655
1.91801e-05
0.00530884
1.77058e-05
0.00529259
1.62517e-05
0.00527778
1.48126e-05
0.00526439
1.33835e-05
0.00525243
1.19592e-05
0.0052419
1.05341e-05
0.0052328
9.1022e-06
0.00522514
7.65738e-06
0.00521894
6.19252e-06
0.00521424
4.70018e-06
0.00521107
3.1716e-06
0.00520947
1.59735e-06
0.0052095
-3.39517e-08
0.00521124
-1.73498e-06
0.00521476
-3.52134e-06
0.00522017
-5.4109e-06
0.00522759
-7.42609e-06
0.00523718
-9.59367e-06
0.00524913
-1.1948e-05
0.00526366
-1.4532e-05
0.00528106
-1.74031e-05
0.00530169
-2.06381e-05
0.00532604
-2.43471e-05
0.00535473
-2.86937e-05
0.00538866
-3.39393e-05
0.00542918
-4.0526e-05
0.00547843
-4.92522e-05
0.00554006
-6.16278e-05
0.00562069
-8.06382e-05
0.00573311
-0.000112424
0.00590304
-0.000169935
0.00618296
-0.000279934
0.00668152
-0.000498563
0.00766927
-0.000987773
-0.00233939
0.0100086
0.105208
0.0151278
0.100188
0.0260049
0.0901929
0.0244196
0.0797506
0.019895
0.0705684
0.0154841
0.0629868
0.0118918
0.0568446
0.00919391
0.0518643
0.00722968
0.047788
0.00580024
0.0444079
0.0047462
0.0415663
0.00395438
0.0391458
0.00334728
0.0370593
0.00287236
0.0352416
0.00249384
0.0336432
0.00218707
0.0322263
0.00193472
0.0309612
0.00172439
0.0298245
0.00154706
0.0287975
0.00139601
0.0278651
0.00126617
0.0270146
0.00115366
0.0262359
0.00105544
0.0255203
0.000969129
0.0248606
0.000892831
0.0242506
0.000825012
0.0236851
0.000764426
0.0231595
0.000710052
0.0226699
0.000661044
0.022213
0.000616697
0.0217857
0.000576421
0.0213854
0.000539716
0.0210099
0.000506159
0.0206571
0.000475386
0.0203252
0.000447087
0.0200125
0.000420993
0.0197176
0.000396872
0.0194393
0.00037452
0.0191763
0.000353761
0.0189276
0.000334438
0.0186922
0.000316415
0.0184693
0.00029957
0.0182581
0.000283795
0.0180578
0.000268995
0.0178678
0.000255083
0.0176875
0.000241983
0.0175164
0.000229625
0.0173539
0.000217948
0.0171997
0.000206894
0.0170532
0.000196413
0.016914
0.000186457
0.0167819
0.000176985
0.0166565
0.000167957
0.0165375
0.000159337
0.0164246
0.000151093
0.0163175
0.000143193
0.0162161
0.000135609
0.0161201
0.000128314
0.0160293
0.000121284
0.0159435
0.000114495
0.0158626
0.000107925
0.0157864
0.000101553
0.0157149
9.53578e-05
0.0156478
8.93206e-05
0.015585
8.34222e-05
0.0155265
7.76439e-05
0.0154723
7.19671e-05
0.0154222
6.63735e-05
0.0153761
6.08443e-05
0.0153341
5.53605e-05
0.0152962
4.99024e-05
0.0152623
4.44494e-05
0.0152324
3.89798e-05
0.0152066
3.34699e-05
0.0151849
2.78944e-05
0.0151674
2.22252e-05
0.0151541
1.64309e-05
0.0151452
1.04761e-05
0.0151408
4.32002e-06
0.0151412
-2.08465e-06
0.0151465
-8.79344e-06
0.0151569
-1.58732e-05
0.0151729
-2.34044e-05
0.0151948
-3.14869e-05
0.0152231
-4.02451e-05
0.0152584
-4.98396e-05
0.0153014
-6.048e-05
0.0153532
-7.24516e-05
0.015415
-8.61529e-05
0.0154885
-0.000102168
0.0155759
-0.000121387
0.0156806
-0.000145236
0.0158075
-0.000176091
0.0159639
-0.000218072
0.0161618
-0.00027853
0.0164202
-0.000370875
0.01677
-0.000519691
0.0172594
-0.00076936
0.0179616
-0.00120078
0.0189434
-0.00196969
-0.00330674
0.0199108
0.105142
0.00998545
0.10894
0.0222071
0.107708
0.0256522
0.103024
0.0245785
0.0967867
0.0217217
0.0902307
0.0184478
0.0840055
0.0154191
0.0783731
0.012862
0.073389
0.0107844
0.0690156
0.00911959
0.0651824
0.00778758
0.0618135
0.00671618
0.0588391
0.00584676
0.056199
0.00513396
0.0538427
0.00454336
0.0517285
0.00404894
0.0498219
0.003631
0.0480944
0.00327452
0.0465225
0.00296793
0.0450864
0.00270224
0.0437697
0.00247039
0.0425583
0.00226678
0.0414406
0.00208691
0.0404062
0.00192717
0.0394466
0.0017846
0.0385543
0.00165677
0.0377227
0.00154166
0.0369461
0.00143761
0.0362196
0.00134319
0.0355388
0.00125724
0.0348998
0.00117872
0.0342992
0.00110679
0.0337338
0.00104071
0.0332011
0.000979828
0.0326985
0.000923602
0.0322238
0.000871547
0.0317751
0.000823244
0.0313505
0.000778324
0.0309485
0.000736462
0.0305676
0.000697372
0.0302063
0.000660798
0.0298636
0.000626515
0.0295383
0.000594321
0.0292293
0.000564034
0.0289358
0.000535491
0.0286569
0.000508548
0.0283918
0.00048307
0.0281397
0.000458939
0.0279001
0.000436046
0.0276723
0.00041429
0.0274557
0.000393581
0.0272498
0.000373836
0.0270542
0.000354978
0.0268683
0.000336937
0.0266919
0.000319646
0.0265244
0.000303044
0.0263657
0.000287076
0.0262153
0.000271686
0.0260729
0.000256826
0.0259384
0.000242446
0.0258115
0.000228503
0.0256919
0.000214951
0.0255794
0.000201751
0.025474
0.000188859
0.0253754
0.000176238
0.0252835
0.000163846
0.0251982
0.000151646
0.0251195
0.000139596
0.0250472
0.000127658
0.0249813
0.000115788
0.0249218
0.000103944
0.0248687
9.20795e-05
0.024822
8.01454e-05
0.0247818
6.80883e-05
0.0247482
5.58496e-05
0.0247213
4.3364e-05
0.0247012
3.05579e-05
0.0246881
1.73471e-05
0.0246824
3.63388e-06
0.0246843
-1.06964e-05
0.0246942
-2.57807e-05
0.0247126
-4.17844e-05
0.02474
-5.89113e-05
0.0247772
-7.7416e-05
0.0248249
-9.76239e-05
0.0248844
-0.00011996
0.024957
-0.000144992
0.0250443
-0.000173507
0.0251487
-0.000206624
0.0252733
-0.000245993
0.0254222
-0.000294131
0.0256011
-0.000354993
0.025818
-0.000434955
0.0260839
-0.000544465
0.0264138
-0.000700763
0.0268261
-0.000931993
0.0273393
-0.00128263
0.0279578
-0.0018193
0.0286177
-0.00262963
-0.00376648
0.0290775
0.103312
0.00667334
0.108501
0.0170179
0.111574
0.0225791
0.111772
0.0243806
0.109657
0.0238367
0.106065
0.0220396
0.101732
0.0197524
0.0971683
0.0174258
0.0926777
0.0152749
0.0884194
0.0133779
0.0844626
0.0117444
0.0808255
0.0103532
0.0774999
0.00917237
0.0744648
0.00816902
0.0716947
0.00731349
0.0691632
0.00658042
0.0668454
0.00594881
0.0647184
0.00540146
0.062762
0.0049244
0.0609579
0.00450629
0.0592905
0.00413787
0.0577457
0.00381159
0.0563113
0.00352125
0.0549767
0.00326174
0.0537326
0.0030288
0.0525705
0.00281887
0.0514831
0.00262899
0.0504641
0.00245663
0.0495076
0.00229967
0.0486086
0.00215629
0.0477624
0.00202492
0.0469649
0.00190423
0.0462126
0.00179307
0.045502
0.00169042
0.0448302
0.00159541
0.0441944
0.00150727
0.0435924
0.00142534
0.0430217
0.00134901
0.0424804
0.00127776
0.0419666
0.00121113
0.0414787
0.00114871
0.0410151
0.00109012
0.0405744
0.00103503
0.0401553
0.000983145
0.0397566
0.000934201
0.0393772
0.000887954
0.0390161
0.000844185
0.0386723
0.000802695
0.038345
0.000763303
0.0380335
0.000725843
0.0377369
0.000690164
0.0374546
0.000656127
0.037186
0.000623602
0.0369305
0.000592473
0.0366875
0.000562627
0.0364566
0.000533964
0.0362372
0.000506387
0.0360291
0.000479806
0.0358318
0.000454136
0.035645
0.000429298
0.0354682
0.000405214
0.0353014
0.000381812
0.0351441
0.00035902
0.0349962
0.00033677
0.0348574
0.000314996
0.0347277
0.000293629
0.0346067
0.000272605
0.0344944
0.000251857
0.0343908
0.000231317
0.0342956
0.000210916
0.034209
0.000190582
0.0341308
0.000170237
0.0340612
0.000149801
0.0340001
0.000129186
0.0339476
0.000108296
0.033904
8.70231e-05
0.0338693
6.52478e-05
0.0338438
4.28333e-05
0.0338278
1.96215e-05
0.0338217
-4.57238e-06
0.0338258
-2.99678e-05
0.0338409
-5.68292e-05
0.0338674
-8.54798e-05
0.0339063
-0.000116321
0.0339586
-0.000149863
0.0340254
-0.000186761
0.0341083
-0.000227882
0.0342091
-0.0002744
0.0343304
-0.000327938
0.0344752
-0.000390809
0.0346475
-0.00046638
0.0348521
-0.00055966
0.0350954
-0.00067821
0.0353844
-0.000833506
0.0357265
-0.00104285
0.0361261
-0.00133165
0.0365786
-0.00173507
0.0370556
-0.00229638
0.0374805
-0.00305456
-0.00400121
0.0377153
0.102077
0.00459586
0.106348
0.0127477
0.110418
0.0185083
0.113046
0.0217528
0.113912
0.0229707
0.113197
0.022755
0.111293
0.0216561
0.108613
0.0201056
0.105496
0.0183924
0.102186
0.0166881
0.0988462
0.0150839
0.095579
0.0136204
0.0924428
0.0123086
0.0894676
0.0111442
0.0866656
0.0101154
0.0840384
0.00920763
0.081581
0.00840621
0.0792851
0.00769736
0.0771408
0.00706876
0.0751374
0.00650963
0.0732647
0.00601064
0.0715124
0.00556382
0.0698713
0.00516236
0.0683326
0.00480046
0.0668882
0.00447315
0.0655309
0.00417621
0.0642539
0.00390601
0.0630511
0.00365942
0.061917
0.00343375
0.0608466
0.0032267
0.0598353
0.00303624
0.0588789
0.00286062
0.0579737
0.00269831
0.0571161
0.00254797
0.0563031
0.00240842
0.0555317
0.00227863
0.0547994
0.00215768
0.0541037
0.00204475
0.0534423
0.00193911
0.0528133
0.00184014
0.0522148
0.00174723
0.051645
0.00165989
0.0511024
0.00157764
0.0505855
0.00150007
0.0500929
0.00142679
0.0496234
0.00135746
0.0491758
0.00129176
0.0487491
0.00122942
0.0483422
0.00117017
0.0479543
0.00111377
0.0475844
0.00106001
0.0472319
0.00100869
0.0468959
0.000959606
0.0465757
0.0009126
0.0462708
0.000867509
0.0459806
0.000824182
0.0457045
0.00078248
0.0454421
0.00074227
0.0451928
0.00070343
0.0449562
0.00066584
0.0447321
0.000629389
0.0445199
0.00059397
0.0443194
0.000559477
0.0441304
0.000525811
0.0439525
0.000492872
0.0437856
0.000460563
0.0436294
0.000428788
0.0434838
0.000397449
0.0433487
0.000366448
0.0432239
0.000335682
0.0431094
0.000305046
0.0430052
0.000274431
0.0429113
0.000243717
0.0428277
0.00021278
0.0427545
0.00018148
0.0426919
0.000149665
0.04264
0.000117164
0.042599
8.37828e-05
0.0425693
4.93e-05
0.0425513
1.34562e-05
0.0425454
-2.40539e-05
0.0425521
-6.35956e-05
0.0425723
-0.000105612
0.0426066
-0.000150649
0.0426561
-0.000199389
0.042722
-0.000252701
0.0428059
-0.000311711
0.0429094
-0.000377907
0.0430347
-0.00045329
0.0431845
-0.000540608
0.0433618
-0.000643687
0.0435701
-0.00076793
0.0438128
-0.000921006
0.0440931
-0.00111375
0.0444114
-0.00136121
0.0447631
-0.00168333
0.0451325
-0.00210444
0.0454851
-0.00264902
0.0457605
-0.00332995
-0.00412284
0.0458821
0.101292
0.00330365
0.104405
0.00963488
0.108104
0.014809
0.111405
0.0184517
0.113752
0.0206239
0.114947
0.0215606
0.115041
0.0215613
0.114223
0.0209245
0.112715
0.0198998
0.11073
0.0186731
0.108442
0.0173718
0.105986
0.0160769
0.103458
0.0148363
0.100928
0.0136749
0.0984396
0.0126035
0.0960234
0.0116238
0.0936969
0.0107327
0.0914698
0.00992447
0.0893463
0.00919223
0.0873272
0.0085288
0.0854106
0.00792724
0.0835933
0.00738106
0.0818714
0.00688433
0.0802401
0.00643171
0.0786948
0.00601845
0.0772307
0.00564033
0.0758431
0.00529364
0.0745274
0.00497508
0.0732794
0.00468175
0.072095
0.0044111
0.0709704
0.00416086
0.069902
0.00392905
0.0688864
0.00371389
0.0679205
0.00351382
0.0670015
0.00332744
0.0661267
0.00315351
0.0652934
0.00299092
0.0644995
0.00283869
0.0637427
0.00269592
0.063021
0.00256181
0.0623326
0.00243564
0.0616757
0.00231678
0.0610487
0.00220462
0.0604502
0.00209863
0.0598786
0.00199834
0.0593328
0.0019033
0.0588114
0.00181311
0.0583134
0.0017274
0.0578378
0.00164583
0.0573835
0.0015681
0.0569495
0.00149392
0.0565352
0.00142302
0.0561397
0.00135516
0.0557622
0.00129011
0.055402
0.00122766
0.0550586
0.00116761
0.0547313
0.00110978
0.0544196
0.00105399
0.0541229
0.00100007
0.0538409
0.000947866
0.053573
0.000897232
0.053319
0.00084802
0.0530784
0.000800091
0.0528509
0.000753311
0.0526362
0.000707547
0.0524341
0.000662668
0.0522443
0.000618545
0.0520667
0.000575046
0.0519011
0.000532041
0.0517474
0.000489393
0.0516055
0.000446962
0.0514753
0.000404602
0.0513569
0.000362157
0.0512502
0.000319459
0.0511554
0.000276329
0.0510725
0.000232565
0.0510017
0.000187946
0.0509432
0.000142221
0.0508974
9.51056e-05
0.0508646
4.62681e-05
0.0508452
-4.67802e-06
0.0508398
-5.81912e-05
0.050849
-0.000114822
0.0508736
-0.000175242
0.0509145
-0.000240277
0.0509727
-0.000310964
0.0510496
-0.000388617
0.0511467
-0.000474931
0.0512655
-0.000572117
0.051408
-0.000683103
0.0515761
-0.000811795
0.0517716
-0.000963438
0.0519956
-0.00114505
0.0522477
-0.00136591
0.0525244
-0.0016379
0.0528164
-0.00197535
0.0531055
-0.00239355
0.0533612
-0.00290469
0.0535407
-0.00350945
-0.00418332
0.0536012
0.100819
0.00248511
0.103016
0.00743776
0.105987
0.0118373
0.1091
0.0153394
0.111866
0.0178571
0.113985
0.0194418
0.115326
0.0202201
0.115893
0.0203578
0.115769
0.020024
0.115074
0.0193682
0.113934
0.0185111
0.112467
0.0175439
0.110772
0.0165316
0.108928
0.0155185
0.106999
0.0145329
0.105031
0.013592
0.103058
0.0127049
0.101107
0.0118757
0.0991948
0.0111047
0.097333
0.0103906
0.0955298
0.00973047
0.0937899
0.00912098
0.0921158
0.00855843
0.0905083
0.00803912
0.0889673
0.00755945
0.0874917
0.007116
0.0860797
0.00670561
0.0847294
0.00632535
0.0834386
0.00597256
0.0822049
0.0056448
0.0810259
0.00533986
0.0798992
0.00505575
0.0788224
0.00479068
0.0777933
0.004543
0.0768095
0.00431124
0.0758689
0.00409409
0.0749695
0.00389032
0.0741093
0.00369886
0.0732865
0.00351871
0.0724994
0.00334897
0.0717462
0.00318884
0.0710254
0.00303757
0.0703355
0.00289449
0.0696751
0.00275897
0.069043
0.00263046
0.0684379
0.00250843
0.0678586
0.0023924
0.0673041
0.00228195
0.0667732
0.00217667
0.0662652
0.00207617
0.0657789
0.00198013
0.0653137
0.00188822
0.0648688
0.00180013
0.0644433
0.0017156
0.0640366
0.00163437
0.063648
0.00155618
0.063277
0.00148081
0.0629229
0.00140804
0.0625853
0.00133767
0.0622637
0.0012695
0.0619576
0.00120334
0.0616666
0.00113902
0.0613903
0.00107635
0.0611285
0.00101517
0.0608807
0.00095532
0.0606467
0.000896626
0.0604263
0.000838928
0.0602193
0.000782063
0.0600255
0.000725865
0.0598447
0.000670165
0.0596769
0.000614787
0.0595219
0.000559549
0.0593798
0.000504257
0.0592506
0.000448705
0.0591342
0.000392669
0.0590309
0.000335905
0.0589407
0.000278141
0.0588638
0.000219075
0.0588006
0.000158363
0.0587512
9.56099e-05
0.0587162
3.03579e-05
0.0586959
-3.793e-05
0.058691
-0.000109892
0.058702
-0.000186295
0.0587298
-0.00026807
0.0587752
-0.000356362
0.0588392
-0.000452594
0.0589228
-0.000558551
0.0590272
-0.000676497
0.0591534
-0.00080932
0.0593023
-0.000960716
0.0594742
-0.00113541
0.0596686
-0.00133939
0.0598827
-0.00158005
0.060111
-0.00186617
0.0603429
-0.00220732
0.0605617
-0.00261235
0.0607432
-0.00308619
0.0608584
-0.00362459
-0.00420726
0.0608823
0.100541
0.00194427
0.102093
0.00588564
0.10437
0.00956065
0.106998
0.0127114
0.109631
0.0152235
0.111999
0.0170741
0.113921
0.0182982
0.115307
0.0189713
0.116142
0.0191896
0.116457
0.0190528
0.116315
0.0186534
0.115789
0.0180702
0.114953
0.0173677
0.113876
0.0165954
0.112618
0.0157903
0.111231
0.014979
0.109756
0.0141799
0.108227
0.0134052
0.106669
0.0126626
0.105103
0.0119563
0.103545
0.0112885
0.102007
0.0106595
0.100497
0.0100687
0.0990208
0.00951482
0.0975841
0.00899616
0.0961894
0.00851075
0.0948384
0.00805655
0.0935323
0.0076315
0.0922713
0.00723358
0.0910552
0.00686085
0.0898836
0.00651149
0.0887556
0.00618377
0.0876702
0.00587608
0.0866262
0.00558693
0.0856226
0.00531493
0.0846578
0.00505881
0.0837308
0.00481739
0.08284
0.0045896
0.0819843
0.00437442
0.0811623
0.00417095
0.0803728
0.00397833
0.0796146
0.0037958
0.0788865
0.00362263
0.0781873
0.00345816
0.077516
0.00330178
0.0768715
0.00315293
0.0762528
0.00301109
0.075659
0.00287576
0.0750891
0.00274651
0.0745424
0.00262291
0.074018
0.00250457
0.0735151
0.00239113
0.0730329
0.00228225
0.0725709
0.00217762
0.0721284
0.00207693
0.0717046
0.00197989
0.0712992
0.00188625
0.0709115
0.00179575
0.070541
0.00170815
0.0701873
0.00162322
0.0698499
0.00154073
0.0695284
0.00146048
0.0692225
0.00138226
0.0689318
0.00130586
0.0686561
0.0012311
0.0683949
0.00115777
0.0681482
0.00108568
0.0679156
0.00101464
0.067697
0.00094444
0.0674923
0.000874891
0.0673013
0.00080578
0.0671239
0.00073689
0.0669602
0.000667993
0.0668101
0.000598846
0.0666735
0.000529185
0.0665507
0.000458727
0.0664417
0.000387155
0.0663466
0.000314122
0.0662658
0.000239233
0.0661993
0.000162039
0.0661477
8.2028e-05
0.0661111
-1.39897e-06
0.0660902
-8.89422e-05
0.0660853
-0.000181432
0.0660971
-0.000279859
0.0661261
-0.00038542
0.0661731
-0.000499568
0.0662386
-0.000624082
0.0663233
-0.000761145
0.0664274
-0.00091345
0.066551
-0.00108431
0.0666933
-0.00127774
0.0668525
-0.00149859
0.0670249
-0.00175245
0.0672041
-0.00204544
0.0673804
-0.00238357
0.0675394
-0.00277143
0.0676632
-0.00320997
0.0677321
-0.00369344
-0.00420611
0.0677309
0.100374
0.00156992
0.101489
0.00477073
0.103211
0.00783912
0.105327
0.0105948
0.107614
0.0129364
0.109869
0.01482
0.111926
0.0162405
0.113674
0.0172237
0.115047
0.0178166
0.116022
0.0180773
0.116609
0.0180668
0.116835
0.0178436
0.116743
0.0174602
0.116377
0.0169614
0.115783
0.0163841
0.115004
0.0157578
0.114079
0.0151051
0.113041
0.0144432
0.111919
0.0137846
0.110737
0.0131383
0.109515
0.0125106
0.108269
0.0119055
0.107012
0.0113254
0.105755
0.0107717
0.104506
0.0102449
0.103272
0.00974476
0.102058
0.00927074
0.100868
0.00882198
0.0997038
0.00839745
0.0985686
0.007996
0.0974637
0.00761643
0.09639
0.00725753
0.0953479
0.0069181
0.0943379
0.00659697
0.0933598
0.00629302
0.0924134
0.00600517
0.0914984
0.0057324
0.0906143
0.00547375
0.0897604
0.00522831
0.0889361
0.00499522
0.0881408
0.00477369
0.0873736
0.00456297
0.0866339
0.00436236
0.0859208
0.0041712
0.0852337
0.0039889
0.0845718
0.00381487
0.0839343
0.00364858
0.0833205
0.00348953
0.0827298
0.00333725
0.0821614
0.0031913
0.0816147
0.00305128
0.081089
0.00291678
0.0805838
0.00278746
0.0800985
0.00266295
0.0796325
0.00254295
0.0791852
0.00242712
0.0787563
0.0023152
0.0783452
0.00220688
0.0779514
0.00210191
0.0775746
0.00200002
0.0772143
0.00190098
0.0768703
0.00180454
0.0765421
0.00171046
0.0762294
0.00161852
0.075932
0.0015285
0.0756496
0.00144016
0.075382
0.0013533
0.075129
0.00126768
0.0748903
0.00118309
0.0746659
0.00109929
0.0744557
0.00101604
0.0742594
0.000933102
0.0740772
0.00085021
0.073909
0.000767089
0.0737547
0.000683445
0.0736145
0.000598956
0.0734884
0.000513272
0.0733765
0.000426005
0.073279
0.000336723
0.0731961
0.000244938
0.073128
0.000150093
0.073075
5.15534e-05
0.0730375
-5.14199e-05
0.0730158
-0.000159687
0.0730102
-0.00027426
0.0730211
-0.000396333
0.0730488
-0.000527326
0.0730937
-0.000668933
0.0731557
-0.000823172
0.0732347
-0.000992443
0.0733299
-0.00117958
0.0734401
-0.00138788
0.0735626
-0.00162108
0.0736933
-0.00188323
0.0738263
-0.00217838
0.0739527
-0.00251003
0.0740614
-0.00288009
0.0741389
-0.00328752
0.074172
-0.00372652
-0.00418514
0.074151
0.10027
0.00129967
0.10109
0.00395063
0.102398
0.00653182
0.104073
0.00891924
0.105977
0.0110331
0.107967
0.0128293
0.109919
0.014289
0.111728
0.0154148
0.113319
0.0162257
0.114644
0.016752
0.115681
0.0170298
0.116427
0.0170979
0.116892
0.0169943
0.1171
0.0167542
0.117075
0.016409
0.116847
0.0159857
0.116445
0.015507
0.115897
0.0149912
0.115228
0.0144533
0.114462
0.0139047
0.113618
0.0133543
0.112715
0.0128091
0.111766
0.0122738
0.110786
0.0117522
0.109784
0.0112466
0.10877
0.0107588
0.107751
0.0102895
0.106734
0.00983938
0.105723
0.00940842
0.104722
0.00899642
0.103736
0.00860301
0.102766
0.00822762
0.101814
0.00786962
0.100883
0.00752832
0.099973
0.00720298
0.0990853
0.00689284
0.0982205
0.00659717
0.0973791
0.0063152
0.0965612
0.00604622
0.0957669
0.00578953
0.0949961
0.00554444
0.0942488
0.00531031
0.0935246
0.00508652
0.0928233
0.00487247
0.0921446
0.00466761
0.0914881
0.00447139
0.0908534
0.00428331
0.09024
0.00410289
0.0896476
0.00392967
0.0890757
0.00376322
0.0885238
0.00360312
0.0879916
0.003449
0.0874786
0.00330047
0.0869844
0.00315719
0.0865085
0.00301881
0.0860506
0.00288503
0.0856103
0.00275551
0.0851872
0.00262999
0.0847809
0.00250816
0.0843912
0.00238975
0.0840177
0.00227451
0.08366
0.00216216
0.083318
0.00205246
0.0829914
0.00194516
0.0826799
0.00184001
0.0823832
0.00173678
0.0821013
0.00163521
0.081834
0.00153506
0.081581
0.00143609
0.0813422
0.00133804
0.0811176
0.00124064
0.0809071
0.00114363
0.0807105
0.00104673
0.080528
0.00094962
0.0803595
0.000851989
0.0802049
0.000753486
0.0800645
0.000653733
0.0799381
0.000552314
0.0798261
0.000448769
0.0797284
0.000342583
0.0796454
0.000233177
0.079577
0.000119893
0.0795236
1.98215e-06
0.0794853
-0.000121419
0.0794624
-0.000251305
0.0794549
-0.00038883
0.0794629
-0.000535333
0.0794863
-0.00069237
0.0795249
-0.00086174
0.0795779
-0.00104551
0.0796444
-0.00124603
0.0797224
-0.0014659
0.0798092
-0.0017079
0.0799008
-0.00197483
0.0799916
-0.00226924
0.0800745
-0.00259292
0.0801406
-0.0029462
0.0801802
-0.00332712
0.0801841
-0.00373042
-0.004147
0.080146
0.100202
0.00109736
0.100821
0.00333173
0.101827
0.00552617
0.103151
0.00759465
0.104708
0.00947682
0.106402
0.0111348
0.108144
0.0125474
0.109851
0.013708
0.111455
0.0146217
0.112904
0.0153025
0.114163
0.0157705
0.115212
0.0160492
0.116043
0.0161639
0.116657
0.0161399
0.117065
0.016001
0.117281
0.0157696
0.117323
0.0154651
0.11721
0.0151047
0.11696
0.014703
0.116592
0.0142721
0.116125
0.0138221
0.115573
0.0133611
0.114951
0.0128957
0.114272
0.0124309
0.113548
0.0119708
0.112788
0.0115184
0.112002
0.0110759
0.111196
0.0106451
0.110378
0.0102269
0.109552
0.00982229
0.108723
0.00943154
0.107896
0.00905487
0.107073
0.00869227
0.106258
0.00834358
0.105453
0.00800853
0.104659
0.00768677
0.103878
0.00737791
0.103112
0.00708149
0.102361
0.00679705
0.101626
0.00652409
0.100909
0.00626211
0.100208
0.00601064
0.0995255
0.00576917
0.0988608
0.00553723
0.098214
0.00531435
0.0975854
0.00510007
0.0969747
0.00489394
0.0963821
0.00469554
0.0958073
0.00450446
0.0952502
0.00432029
0.0947107
0.00414266
0.0941885
0.0039712
0.0936834
0.00380555
0.0931952
0.00364537
0.0927237
0.00349033
0.0922686
0.00334011
0.0918297
0.00319441
0.0914068
0.00305293
0.0909996
0.00291537
0.0906078
0.00278148
0.0902314
0.00265095
0.08987
0.00252354
0.0895235
0.00239898
0.0891916
0.002277
0.0888743
0.00215735
0.0885713
0.00203977
0.0882825
0.00192401
0.0880078
0.0018098
0.087747
0.00169688
0.0875
0.00158497
0.0872669
0.00147381
0.0870474
0.00136309
0.0868416
0.00125251
0.0866495
0.00114176
0.086471
0.00103049
0.0863061
0.000918327
0.086155
0.000804882
0.0860176
0.000689719
0.085894
0.000572361
0.0857843
0.000452282
0.0856886
0.000328892
0.0856069
0.000201534
0.0855394
6.94645e-05
0.0854862
-6.81544e-05
0.0854471
-0.000212276
0.0854223
-0.000363981
0.0854114
-0.000524497
0.0854143
-0.000695213
0.0854302
-0.000877689
0.0854583
-0.00107366
0.0854973
-0.001285
0.0855451
-0.0015137
0.085599
-0.00176177
0.0856552
-0.00203106
0.085709
-0.00232303
0.0857544
-0.00263835
0.0857847
-0.00297651
0.0857927
-0.00333518
0.0857721
-0.00370982
-0.0040934
0.0857185
0.100156
0.000941176
0.100635
0.00285294
0.101422
0.00473955
0.102476
0.00654004
0.103744
0.00820903
0.105163
0.00971568
0.10667
0.0110406
0.108204
0.0121743
0.10971
0.0131157
0.111142
0.0138705
0.112463
0.0144489
0.113648
0.0148648
0.114677
0.0151341
0.115543
0.0152739
0.116243
0.0153011
0.11678
0.0152326
0.117162
0.0150839
0.117397
0.0148693
0.117498
0.0146017
0.117478
0.0142924
0.117349
0.013951
0.117124
0.0135861
0.116815
0.0132046
0.116433
0.0128124
0.11599
0.0124144
0.115494
0.0120145
0.114954
0.0116158
0.114378
0.0112209
0.113773
0.0108319
0.113145
0.0104502
0.1125
0.0100769
0.111842
0.00971304
0.111175
0.00935907
0.110503
0.00901539
0.109829
0.00868224
0.109156
0.00835967
0.108487
0.00804767
0.107822
0.00774611
0.107164
0.00745483
0.106515
0.00717359
0.105875
0.00690211
0.105245
0.00664011
0.104627
0.00638726
0.104021
0.00614323
0.103428
0.00590767
0.102848
0.00568025
0.102281
0.00546061
0.101728
0.00524842
0.101189
0.00504333
0.100665
0.00484499
0.100154
0.00465309
0.0996581
0.0044673
0.0991763
0.00428729
0.098709
0.00411276
0.0982559
0.0039434
0.0978171
0.00377892
0.0973925
0.00361902
0.096982
0.00346342
0.0965855
0.00331185
0.096203
0.00316402
0.0958342
0.00301967
0.0954792
0.00287853
0.0951379
0.00274034
0.0948101
0.00260483
0.0944957
0.00247175
0.0941946
0.00234082
0.0939068
0.0022118
0.0936322
0.00208439
0.0933708
0.00195834
0.0931224
0.00183337
0.092887
0.00170917
0.0926646
0.00158545
0.0924552
0.0014619
0.0922588
0.00133818
0.0920754
0.00121394
0.0919049
0.0010888
0.0917474
0.000962347
0.091603
0.000834149
0.0914716
0.000703722
0.0913534
0.000570538
0.0912482
0.000434015
0.0911562
0.000293508
0.0910774
0.000148302
0.0910117
-2.40297e-06
0.0909589
-0.000159494
0.0909188
-0.000323963
0.0908912
-0.000496906
0.0908756
-0.000679534
0.090871
-0.000873166
0.0908766
-0.00107921
0.0908907
-0.00129915
0.0909115
-0.00153446
0.0909362
-0.00178652
0.0909616
-0.00205647
0.0909836
-0.00234503
0.0909975
-0.00265221
0.090998
-0.00297701
0.0909799
-0.00331709
0.0909386
-0.00366858
-0.00402599
0.0908712
0.100124
0.00081747
0.100503
0.00247405
0.101129
0.00411328
0.101978
0.00569077
0.103015
0.00717209
0.104198
0.00853252
0.105484
0.00975531
0.106827
0.0108309
0.108187
0.0117558
0.109526
0.0125315
0.110812
0.0131631
0.112018
0.0136585
0.113125
0.0140275
0.114117
0.0142813
0.114987
0.0144316
0.115729
0.0144904
0.116343
0.0144694
0.116833
0.0143797
0.117203
0.014232
0.117459
0.0140357
0.117611
0.0137996
0.117665
0.0135313
0.117632
0.0132377
0.11752
0.0129246
0.117338
0.0125971
0.117093
0.0122595
0.116793
0.0119155
0.116446
0.0115682
0.116057
0.01122
0.115634
0.0108731
0.115182
0.0105293
0.114705
0.0101897
0.114209
0.00985566
0.113696
0.00952787
0.113172
0.00920701
0.112638
0.00889357
0.112098
0.00858785
0.111554
0.00829009
0.111008
0.0080004
0.110463
0.0077188
0.10992
0.00744527
0.10938
0.00717972
0.108845
0.00692203
0.108316
0.00667202
0.107795
0.00642952
0.107281
0.0061943
0.106775
0.00596614
0.106279
0.00574481
0.105792
0.00553004
0.105315
0.00532158
0.104849
0.00511917
0.104394
0.00492256
0.10395
0.00473147
0.103517
0.00454564
0.103096
0.00436481
0.102686
0.00418871
0.102288
0.00401709
0.101901
0.00384969
0.101527
0.00368625
0.101165
0.0035265
0.100814
0.00337021
0.100475
0.00321711
0.100149
0.00306695
0.0998341
0.00291946
0.0995315
0.00277441
0.0992408
0.00263151
0.0989621
0.00249052
0.0986953
0.00235116
0.0984405
0.00221315
0.0981976
0.00207622
0.0979667
0.00194007
0.0977478
0.00180439
0.0975408
0.00166887
0.0973459
0.00153316
0.0971629
0.00139692
0.0969919
0.00125976
0.096833
0.00112127
0.0966861
0.000981014
0.0965513
0.00083852
0.0964286
0.000693268
0.0963179
0.000544694
0.0962192
0.000392182
0.0961325
0.000235053
0.0960575
7.25653e-05
0.0959941
-9.60943e-05
0.0959419
-0.000271813
0.0959006
-0.000455554
0.0958694
-0.000648349
0.0958475
-0.000851288
0.0958338
-0.0010655
0.0958267
-0.00129211
0.0958244
-0.00153217
0.0958245
-0.0017866
0.095824
-0.00205603
0.0958197
-0.00234067
0.0958076
-0.00264013
0.0957838
-0.00295321
0.0957444
-0.00327769
0.0956861
-0.00361029
-0.00394667
0.0956068
0.1001
0.000717374
0.100406
0.00216813
0.100913
0.003606
0.101606
0.00499779
0.102461
0.00631698
0.10345
0.00754367
0.104542
0.00866371
0.105704
0.00966828
0.106907
0.0105532
0.108121
0.0113178
0.109319
0.0119647
0.110479
0.0124983
0.111582
0.0129248
0.112612
0.0132514
0.113557
0.0134862
0.11441
0.0136376
0.115165
0.0137141
0.115821
0.013724
0.116377
0.0136757
0.116836
0.0135767
0.117202
0.0134343
0.117478
0.0132551
0.11767
0.0130452
0.117785
0.0128099
0.117828
0.0125541
0.117806
0.012282
0.117724
0.0119974
0.117588
0.0117036
0.117405
0.0114033
0.117179
0.0110989
0.116916
0.0107924
0.11662
0.0104856
0.116296
0.0101799
0.115948
0.00987648
0.115578
0.00957634
0.115192
0.00928028
0.114791
0.00898891
0.114378
0.00870275
0.113956
0.00842217
0.113527
0.00814744
0.113094
0.00787877
0.112657
0.00761628
0.112219
0.00736002
0.111781
0.00711001
0.111345
0.00686621
0.110911
0.00662855
0.11048
0.00639694
0.110053
0.00617123
0.109632
0.0059513
0.109217
0.00573697
0.108808
0.00552807
0.108406
0.00532442
0.108012
0.0051258
0.107625
0.00493203
0.107247
0.00474288
0.106878
0.00455815
0.106517
0.00437761
0.106166
0.00420104
0.105824
0.00402821
0.105491
0.0038589
0.105169
0.00369288
0.104856
0.00352991
0.104553
0.00336975
0.10426
0.00321216
0.103978
0.00305691
0.103706
0.00290373
0.103444
0.00275238
0.103192
0.00260259
0.102952
0.00245409
0.102721
0.00230661
0.102501
0.00215986
0.102292
0.00201353
0.102094
0.00186731
0.101906
0.00172087
0.101729
0.00157384
0.101563
0.00142587
0.101408
0.00127655
0.101263
0.00112544
0.10113
0.000972102
0.101007
0.000816026
0.100895
0.000656677
0.100794
0.000493476
0.100703
0.000325794
0.100622
0.000152954
0.100552
-2.57753e-05
0.100492
-0.000211174
0.10044
-0.000404071
0.100397
-0.000605328
0.100362