/*--------------------------------*- C++ -*----------------------------------*\
| =========                 |                                                 |
| \\      /  F ield         | OpenFOAM: The Open Source CFD Toolbox           |
|  \\    /   O peration     | Version:  2406                                  |
|   \\  /    A nd           | Website:  www.openfoam.com                      |
|    \\/     M anipulation  |                                                 |
\*---------------------------------------------------------------------------*/
FoamFile
{
    version     2.0;
    format      ascii;
    arch        "LSB;label=32;scalar=64";
    class       volVectorField;
    location    "250";
    object      U;
}
// * * * * * * * * * * * * * * * * * * * * * * * * * * * * * * * * * * * * * //

dimensions      [0 1 -1 0 0 0 0];

internalField   nonuniform List<vector> 
150000
(
(7.94097 0.953544 0)
(6.69751 1.02915 0)
(5.17751 0.578428 0)
(3.90221 0.29437 0)
(3.11151 0.1661 0)
(2.60346 0.0998756 0)
(2.24739 0.0624331 0)
(1.98829 0.0414154 0)
(1.79353 0.029314 0)
(1.64166 0.0219089 0)
(1.51944 0.0170928 0)
(1.41862 0.0137912 0)
(1.33379 0.0114197 0)
(1.26128 0.00964693 0)
(1.19846 0.00827799 0)
(1.14346 0.0071931 0)
(1.09485 0.0063152 0)
(1.05156 0.00559257 0)
(1.01275 0.00498926 0)
(0.977738 0.00447949 0)
(0.945996 0.00404427 0)
(0.917084 0.00366931 0)
(0.890642 0.00334368 0)
(0.866369 0.00305886 0)
(0.844013 0.00280813 0)
(0.823361 0.0025861 0)
(0.804231 0.00238844 0)
(0.786466 0.00221162 0)
(0.769933 0.00205272 0)
(0.754513 0.00190933 0)
(0.740105 0.00177945 0)
(0.726618 0.00166136 0)
(0.713974 0.00155364 0)
(0.702103 0.00145506 0)
(0.690943 0.00136459 0)
(0.680438 0.00128132 0)
(0.670539 0.00120447 0)
(0.661201 0.00113336 0)
(0.652385 0.00106742 0)
(0.644054 0.00100612 0)
(0.636177 0.000948999 0)
(0.628723 0.000895666 0)
(0.621665 0.000845763 0)
(0.614979 0.000798973 0)
(0.608644 0.000755013 0)
(0.602638 0.00071363 0)
(0.596943 0.000674598 0)
(0.591542 0.00063771 0)
(0.586419 0.000602783 0)
(0.58156 0.000569645 0)
(0.576953 0.000538146 0)
(0.572584 0.000508144 0)
(0.568444 0.00047951 0)
(0.564521 0.000452126 0)
(0.560806 0.000425882 0)
(0.557292 0.000400675 0)
(0.55397 0.000376413 0)
(0.550832 0.000353002 0)
(0.547873 0.000330361 0)
(0.545087 0.000308409 0)
(0.542468 0.00028707 0)
(0.540012 0.000266268 0)
(0.537714 0.000245934 0)
(0.53557 0.000225996 0)
(0.533578 0.000206387 0)
(0.531734 0.000187035 0)
(0.530036 0.000167873 0)
(0.528484 0.000148827 0)
(0.527074 0.000129826 0)
(0.525807 0.00011079 0)
(0.524682 9.1643e-05 0)
(0.5237 7.22905e-05 0)
(0.522861 5.26449e-05 0)
(0.522168 3.25948e-05 0)
(0.521623 1.2032e-05 0)
(0.521228 -9.18218e-06 0)
(0.520988 -3.11871e-05 0)
(0.520909 -5.41637e-05 0)
(0.520995 -7.83023e-05 0)
(0.521256 -0.000103851 0)
(0.521699 -0.000131079 0)
(0.522338 -0.000160337 0)
(0.523185 -0.000192023 0)
(0.524257 -0.000226662 0)
(0.525574 -0.000264879 0)
(0.527163 -0.000307527 0)
(0.529055 -0.000355714 0)
(0.531291 -0.000411096 0)
(0.533925 -0.000476224 0)
(0.53703 -0.000555597 0)
(0.540714 -0.000657727 0)
(0.545139 -0.000800113 0)
(0.550573 -0.0010202 0)
(0.557492 -0.00140259 0)
(0.566785 -0.00214941 0)
(0.580122 -0.00374121 0)
(0.600752 -0.00727492 0)
(0.636597 -0.0160611 0)
(0.710169 -0.0471235 0)
(0.825527 -0.174575 0)
(10.2186 1.88712 0)
(10.3826 2.72493 0)
(9.62171 2.24105 0)
(8.49563 1.62031 0)
(7.4768 1.14054 0)
(6.6423 0.807999 0)
(5.96319 0.586453 0)
(5.41243 0.439601 0)
(4.96441 0.340466 0)
(4.5956 0.271563 0)
(4.28759 0.222099 0)
(4.02677 0.185455 0)
(3.80315 0.157523 0)
(3.60925 0.135693 0)
(3.43946 0.118263 0)
(3.28948 0.104091 0)
(3.156 0.0923888 0)
(3.03641 0.0825956 0)
(2.92863 0.0743056 0)
(2.83099 0.0672168 0)
(2.74211 0.0611013 0)
(2.66088 0.0557835 0)
(2.58636 0.0511265 0)
(2.51776 0.047022 0)
(2.45441 0.0433835 0)
(2.39575 0.0401409 0)
(2.3413 0.0372372 0)
(2.29063 0.0346252 0)
(2.24338 0.0322659 0)
(2.19923 0.0301267 0)
(2.15792 0.0281802 0)
(2.11918 0.0264031 0)
(2.08281 0.0247756 0)
(2.04862 0.0232808 0)
(2.01643 0.021904 0)
(1.98608 0.0206325 0)
(1.95745 0.0194556 0)
(1.93041 0.0183634 0)
(1.90485 0.0173477 0)
(1.88067 0.0164011 0)
(1.85778 0.015517 0)
(1.83609 0.0146896 0)
(1.81553 0.0139138 0)
(1.79603 0.013185 0)
(1.77753 0.0124991 0)
(1.75998 0.0118524 0)
(1.74331 0.0112416 0)
(1.72748 0.0106636 0)
(1.71245 0.0101158 0)
(1.69818 0.00959554 0)
(1.68463 0.0091007 0)
(1.67176 0.00862916 0)
(1.65955 0.00817902 0)
(1.64796 0.00774851 0)
(1.63696 0.00733602 0)
(1.62655 0.00694002 0)
(1.61668 0.00655912 0)
(1.60734 0.00619198 0)
(1.59852 0.00583736 0)
(1.59019 0.00549408 0)
(1.58234 0.00516101 0)
(1.57495 0.00483709 0)
(1.56802 0.00452126 0)
(1.56153 0.00421251 0)
(1.55547 0.00390985 0)
(1.54984 0.00361228 0)
(1.54462 0.00331882 0)
(1.53981 0.00302848 0)
(1.53541 0.00274021 0)
(1.53142 0.00245297 0)
(1.52782 0.00216564 0)
(1.52463 0.00187704 0)
(1.52185 0.0015859 0)
(1.51947 0.00129082 0)
(1.51751 0.000990284 0)
(1.51597 0.000682567 0)
(1.51486 0.00036573 0)
(1.51419 3.75343e-05 0)
(1.51398 -0.000304617 0)
(1.51426 -0.000663801 0)
(1.51504 -0.00104368 0)
(1.51635 -0.00144873 0)
(1.51823 -0.00188442 0)
(1.52073 -0.00235766 0)
(1.52389 -0.00287728 0)
(1.52779 -0.00345495 0)
(1.53251 -0.00410651 0)
(1.53815 -0.00485452 0)
(1.54487 -0.00573255 0)
(1.55285 -0.00679355 0)
(1.56236 -0.00812575 0)
(1.5738 -0.00988425 0)
(1.58775 -0.012354 0)
(1.60512 -0.0160781 0)
(1.62739 -0.0221208 0)
(1.65689 -0.0325941 0)
(1.69745 -0.0516465 0)
(1.75576 -0.0874544 0)
(1.84128 -0.157248 0)
(1.93849 -0.295411 0)
(10.1768 1.34551 0)
(10.7882 2.53793 0)
(10.9413 2.6646 0)
(10.5996 2.36735 0)
(10.0102 1.96112 0)
(9.34912 1.57584 0)
(8.70075 1.25803 0)
(8.10428 1.01149 0)
(7.57317 0.824006 0)
(7.10657 0.681415 0)
(6.69796 0.571926 0)
(6.33954 0.486666 0)
(6.02389 0.419225 0)
(5.74447 0.365039 0)
(5.49573 0.320861 0)
(5.27311 0.284355 0)
(5.07282 0.253822 0)
(4.89174 0.228006 0)
(4.72729 0.205966 0)
(4.57733 0.186984 0)
(4.44005 0.170507 0)
(4.31396 0.156104 0)
(4.19777 0.143432 0)
(4.0904 0.132218 0)
(3.9909 0.12224 0)
(3.89847 0.113318 0)
(3.81242 0.105305 0)
(3.73214 0.098078 0)
(3.65711 0.091534 0)
(3.58684 0.085587 0)
(3.52094 0.0801645 0)
(3.45904 0.0752044 0)
(3.40081 0.0706538 0)
(3.34597 0.0664672 0)
(3.29426 0.0626054 0)
(3.24545 0.0590342 0)
(3.19933 0.0557238 0)
(3.1557 0.0526483 0)
(3.11441 0.0497847 0)
(3.0753 0.047113 0)
(3.03822 0.0446153 0)
(3.00305 0.0422757 0)
(2.96968 0.0400802 0)
(2.93799 0.038016 0)
(2.90788 0.0360719 0)
(2.87928 0.0342376 0)
(2.8521 0.032504 0)
(2.82626 0.0308628 0)
(2.80169 0.0293064 0)
(2.77833 0.0278278 0)
(2.75612 0.026421 0)
(2.73501 0.0250799 0)
(2.71495 0.0237994 0)
(2.69588 0.0225746 0)
(2.67778 0.021401 0)
(2.66059 0.0202743 0)
(2.64429 0.0191906 0)
(2.62884 0.0181462 0)
(2.61421 0.0171377 0)
(2.60038 0.0161617 0)
(2.58731 0.0152152 0)
(2.57499 0.0142952 0)
(2.56339 0.0133987 0)
(2.5525 0.012523 0)
(2.5423 0.0116653 0)
(2.53278 0.0108228 0)
(2.52392 0.00999285 0)
(2.51573 0.0091727 0)
(2.50817 0.00835955 0)
(2.50127 0.00755048 0)
(2.495 0.00674247 0)
(2.48937 0.00593231 0)
(2.48438 0.00511657 0)
(2.48003 0.00429149 0)
(2.47634 0.00345297 0)
(2.47331 0.00259641 0)
(2.47095 0.00171661 0)
(2.46929 0.000807618 0)
(2.46834 -0.000137494 0)
(2.46814 -0.00112687 0)
(2.46872 -0.00217026 0)
(2.47012 -0.00327948 0)
(2.4724 -0.00446911 0)
(2.47561 -0.00575743 0)
(2.47983 -0.0071679 0)
(2.48517 -0.00873131 0)
(2.49173 -0.0104893 0)
(2.49968 -0.0125 0)
(2.5092 -0.0148477 0)
(2.52057 -0.0176594 0)
(2.53413 -0.0211347 0)
(2.55036 -0.0255981 0)
(2.56992 -0.0315943 0)
(2.59375 -0.0400582 0)
(2.62314 -0.0526154 0)
(2.65975 -0.0720846 0)
(2.70559 -0.103233 0)
(2.76252 -0.153831 0)
(2.82941 -0.235745 0)
(2.88957 -0.360846 0)
(10.0798 0.823387 0)
(10.5966 1.94647 0)
(11.0631 2.45323 0)
(11.2348 2.5305 0)
(11.1194 2.36866 0)
(10.8128 2.10339 0)
(10.4014 1.81881 0)
(9.94684 1.55615 0)
(9.48854 1.32957 0)
(9.04837 1.14014 0)
(8.63658 0.983829 0)
(8.25676 0.855196 0)
(7.90897 0.749016 0)
(7.59149 0.660829 0)
(7.30185 0.587024 0)
(7.03738 0.524752 0)
(6.79549 0.471781 0)
(6.57377 0.426369 0)
(6.37006 0.387148 0)
(6.18245 0.35304 0)
(6.00923 0.323186 0)
(5.84894 0.296902 0)
(5.70026 0.273631 0)
(5.56206 0.252924 0)
(5.43334 0.234411 0)
(5.31321 0.217786 0)
(5.20091 0.202796 0)
(5.09574 0.189229 0)
(4.9971 0.176905 0)
(4.90445 0.165674 0)
(4.81729 0.155406 0)
(4.7352 0.145991 0)
(4.6578 0.137335 0)
(4.58473 0.129355 0)
(4.51568 0.12198 0)
(4.45037 0.115148 0)
(4.38853 0.108805 0)
(4.32995 0.102903 0)
(4.2744 0.0974001 0)
(4.22169 0.0922594 0)
(4.17164 0.0874478 0)
(4.1241 0.0829357 0)
(4.07892 0.078697 0)
(4.03596 0.074708 0)
(3.9951 0.0709478 0)
(3.95622 0.0673971 0)
(3.91922 0.0640388 0)
(3.884 0.0608572 0)
(3.85047 0.057838 0)
(3.81855 0.0549684 0)
(3.78816 0.0522364 0)
(3.75923 0.0496311 0)
(3.7317 0.0471426 0)
(3.7055 0.0447615 0)
(3.68059 0.0424792 0)
(3.65691 0.0402879 0)
(3.63441 0.0381799 0)
(3.61304 0.0361484 0)
(3.59278 0.0341867 0)
(3.57358 0.0322886 0)
(3.55541 0.0304481 0)
(3.53824 0.0286595 0)
(3.52204 0.0269174 0)
(3.50679 0.0252165 0)
(3.49246 0.0235514 0)
(3.47903 0.021917 0)
(3.4665 0.0203082 0)
(3.45484 0.0187198 0)
(3.44405 0.0171465 0)
(3.43411 0.0155829 0)
(3.42502 0.0140233 0)
(3.41678 0.0124617 0)
(3.40939 0.0108917 0)
(3.40285 0.00930647 0)
(3.39717 0.0076983 0)
(3.39236 0.00605876 0)
(3.38844 0.00437831 0)
(3.38542 0.00264607 0)
(3.38334 0.000849429 0)
(3.38222 -0.00102642 0)
(3.38211 -0.00299911 0)
(3.38306 -0.00508994 0)
(3.38512 -0.00732508 0)
(3.38837 -0.00973723 0)
(3.3929 -0.012368 0)
(3.39882 -0.0152716 0)
(3.40626 -0.0185202 0)
(3.4154 -0.0222127 0)
(3.42644 -0.0264886 0)
(3.43967 -0.0315502 0)
(3.45541 -0.0377001 0)
(3.47412 -0.0454016 0)
(3.49635 -0.0553782 0)
(3.52277 -0.068771 0)
(3.55415 -0.0873772 0)
(3.59116 -0.11397 0)
(3.63399 -0.152621 0)
(3.68148 -0.208781 0)
(3.7291 -0.288283 0)
(3.76483 -0.392255 0)
(10.0426 0.546306 0)
(10.395 1.45864 0)
(10.8535 2.05157 0)
(11.2147 2.33747 0)
(11.3916 2.39304 0)
(11.3903 2.30039 0)
(11.2488 2.12886 0)
(11.0103 1.92716 0)
(10.7132 1.72419 0)
(10.3868 1.53461 0)
(10.0511 1.36447 0)
(9.71878 1.21501 0)
(9.39753 1.0851 0)
(9.09143 0.972678 0)
(8.8024 0.875417 0)
(8.53098 0.791106 0)
(8.27691 0.717776 0)
(8.03946 0.653737 0)
(7.8177 0.597562 0)
(7.61057 0.54806 0)
(7.41701 0.504241 0)
(7.236 0.465281 0)
(7.06655 0.430495 0)
(6.90777 0.399307 0)
(6.7588 0.371239 0)
(6.61889 0.345886 0)
(6.48733 0.322906 0)
(6.36348 0.302008 0)
(6.24677 0.282945 0)
(6.13666 0.265504 0)
(6.03268 0.249504 0)
(5.93439 0.234785 0)
(5.8414 0.221213 0)
(5.75334 0.208666 0)
(5.66989 0.197043 0)
(5.59074 0.18625 0)
(5.51562 0.176209 0)
(5.44427 0.166848 0)
(5.37647 0.158103 0)
(5.312 0.14992 0)
(5.25067 0.142249 0)
(5.19229 0.135045 0)
(5.13671 0.128268 0)
(5.08377 0.121882 0)
(5.03333 0.115855 0)
(4.98525 0.110158 0)
(4.93943 0.104764 0)
(4.89574 0.0996489 0)
(4.85408 0.0947909 0)
(4.81436 0.0901697 0)
(4.77649 0.085767 0)
(4.74039 0.0815658 0)
(4.70598 0.0775505 0)
(4.67319 0.0737066 0)
(4.64196 0.0700207 0)
(4.61222 0.0664802 0)
(4.58391 0.0630735 0)
(4.557 0.0597896 0)
(4.53142 0.0566181 0)
(4.50714 0.0535492 0)
(4.48411 0.0505735 0)
(4.4623 0.0476821 0)
(4.44168 0.0448664 0)
(4.42221 0.042118 0)
(4.40387 0.0394285 0)
(4.38664 0.03679 0)
(4.37048 0.0341944 0)
(4.3554 0.0316336 0)
(4.34137 0.0290992 0)
(4.32837 0.0265829 0)
(4.31641 0.0240758 0)
(4.30548 0.0215687 0)
(4.29557 0.0190516 0)
(4.2867 0.016514 0)
(4.27885 0.0139441 0)
(4.27206 0.0113291 0)
(4.26632 0.00865446 0)
(4.26167 0.0059037 0)
(4.25813 0.00305782 0)
(4.25574 9.46452e-05 0)
(4.25453 -0.00301208 0)
(4.25455 -0.00629393 0)
(4.25588 -0.00978939 0)
(4.25858 -0.0135462 0)
(4.26275 -0.0176243 0)
(4.26849 -0.022101 0)
(4.27593 -0.0270773 0)
(4.28525 -0.0326885 0)
(4.29664 -0.0391198 0)
(4.31032 -0.04663 0)
(4.32659 -0.0555885 0)
(4.34578 -0.0665307 0)
(4.36824 -0.0802396 0)
(4.39433 -0.0978608 0)
(4.42427 -0.121045 0)
(4.45794 -0.152087 0)
(4.4945 -0.193936 0)
(4.53165 -0.249828 0)
(4.56478 -0.321971 0)
(4.58616 -0.408242 0)
(10.0236 0.385443 0)
(10.2537 1.0964 0)
(10.6178 1.64934 0)
(10.9919 2.0111 0)
(11.2854 2.19896 0)
(11.4637 2.24866 0)
(11.5248 2.20095 0)
(11.4833 2.09309 0)
(11.3615 1.9538 0)
(11.182 1.80275 0)
(10.9645 1.65218 0)
(10.7244 1.50901 0)
(10.4731 1.3766 0)
(10.2188 1.25616 0)
(9.96696 1.14765 0)
(9.72117 1.05041 0)
(9.4837 0.963444 0)
(9.25584 0.885709 0)
(9.03825 0.816161 0)
(8.83113 0.753831 0)
(8.6344 0.69785 0)
(8.44779 0.647444 0)
(8.27094 0.601939 0)
(8.10339 0.560745 0)
(7.94468 0.523353 0)
(7.79432 0.489318 0)
(7.65185 0.458258 0)
(7.51679 0.429838 0)
(7.38871 0.40377 0)
(7.26719 0.379801 0)
(7.15183 0.35771 0)
(7.04227 0.337306 0)
(6.93814 0.318418 0)
(6.83915 0.300897 0)
(6.74497 0.284612 0)
(6.65534 0.269447 0)
(6.57 0.255299 0)
(6.48869 0.242075 0)
(6.41121 0.229693 0)
(6.33733 0.218081 0)
(6.26687 0.207173 0)
(6.19965 0.19691 0)
(6.1355 0.187238 0)
(6.07425 0.178109 0)
(6.01578 0.16948 0)
(5.95994 0.161312 0)
(5.90661 0.153568 0)
(5.85567 0.146215 0)
(5.80702 0.139224 0)
(5.76054 0.132566 0)
(5.71615 0.126217 0)
(5.67376 0.120153 0)
(5.63329 0.114353 0)
(5.59465 0.108796 0)
(5.55778 0.103464 0)
(5.52262 0.0983395 0)
(5.4891 0.093406 0)
(5.45716 0.0886484 0)
(5.42675 0.084052 0)
(5.39783 0.0796033 0)
(5.37035 0.075289 0)
(5.34426 0.0710965 0)
(5.31954 0.0670139 0)
(5.29614 0.0630292 0)
(5.27404 0.0591309 0)
(5.2532 0.0553078 0)
(5.23362 0.0515484 0)
(5.21525 0.0478415 0)
(5.1981 0.0441755 0)
(5.18213 0.0405386 0)
(5.16735 0.0369185 0)
(5.15375 0.0333024 0)
(5.14132 0.0296766 0)
(5.13006 0.0260266 0)
(5.11998 0.0223362 0)
(5.11109 0.0185879 0)
(5.1034 0.014762 0)
(5.09694 0.0108363 0)
(5.09171 0.00678524 0)
(5.08777 0.00257922 0)
(5.08515 -0.00181655 0)
(5.0839 -0.00644353 0)
(5.08407 -0.0113518 0)
(5.08574 -0.0166029 0)
(5.08899 -0.0222731 0)
(5.09392 -0.0284589 0)
(5.10064 -0.0352843 0)
(5.1093 -0.0429111 0)
(5.12004 -0.051554 0)
(5.13306 -0.0615024 0)
(5.14854 -0.0731511 0)
(5.16668 -0.0870429 0)
(5.18763 -0.103925 0)
(5.21146 -0.124817 0)
(5.23803 -0.15107 0)
(5.26674 -0.184388 0)
(5.29634 -0.22669 0)
(5.32444 -0.279676 0)
(5.34733 -0.343801 0)
(5.36017 -0.416466 0)
(10.0134 0.283904 0)
(10.1646 0.837048 0)
(10.4345 1.31421 0)
(10.7555 1.67853 0)
(11.061 1.92429 0)
(11.3108 2.06185 0)
(11.4852 2.10999 0)
(11.5795 2.09088 0)
(11.599 2.02558 0)
(11.5549 1.93155 0)
(11.4601 1.82201 0)
(11.327 1.70631 0)
(11.1667 1.59065 0)
(10.9879 1.47885 0)
(10.7979 1.37308 0)
(10.602 1.27439 0)
(10.4043 1.18313 0)
(10.2076 1.09921 0)
(10.014 1.0223 0)
(9.82505 0.951935 0)
(9.64164 0.887598 0)
(9.46439 0.828761 0)
(9.29365 0.774915 0)
(9.12956 0.725581 0)
(8.97215 0.680319 0)
(8.82135 0.638729 0)
(8.67702 0.600449 0)
(8.53896 0.565154 0)
(8.40696 0.532556 0)
(8.28079 0.502394 0)
(8.16022 0.474437 0)
(8.04499 0.448479 0)
(7.93487 0.424336 0)
(7.82963 0.401842 0)
(7.72903 0.380851 0)
(7.63287 0.361231 0)
(7.54092 0.342862 0)
(7.45299 0.32564 0)
(7.36888 0.309467 0)
(7.28843 0.294258 0)
(7.21145 0.279933 0)
(7.13779 0.266424 0)
(7.06729 0.253664 0)
(6.99981 0.241596 0)
(6.93522 0.230167 0)
(6.87339 0.219328 0)
(6.8142 0.209034 0)
(6.75753 0.199246 0)
(6.70328 0.189924 0)
(6.65136 0.181036 0)
(6.60167 0.172549 0)
(6.55412 0.164433 0)
(6.50863 0.156662 0)
(6.46512 0.149209 0)
(6.42353 0.142051 0)
(6.38378 0.135167 0)
(6.34582 0.128534 0)
(6.30958 0.122133 0)
(6.27501 0.115946 0)
(6.24206 0.109955 0)
(6.21068 0.104142 0)
(6.18084 0.0984926 0)
(6.15248 0.0929897 0)
(6.12558 0.0876185 0)
(6.10011 0.082364 0)
(6.07603 0.0772115 0)
(6.05332 0.0721462 0)
(6.03195 0.0671535 0)
(6.01191 0.0622185 0)
(5.99319 0.0573258 0)
(5.97576 0.0524598 0)
(5.95962 0.0476038 0)
(5.94477 0.0427405 0)
(5.9312 0.037851 0)
(5.91892 0.0329151 0)
(5.90793 0.0279106 0)
(5.89825 0.0228126 0)
(5.88989 0.0175933 0)
(5.88288 0.0122211 0)
(5.87724 0.00665953 0)
(5.87301 0.000866026 0)
(5.87023 -0.00520961 0)
(5.86896 -0.0116274 0)
(5.86924 -0.0184599 0)
(5.87117 -0.0257961 0)
(5.8748 -0.0337465 0)
(5.88024 -0.0424499 0)
(5.8876 -0.0520828 0)
(5.89697 -0.0628725 0)
(5.90847 -0.075114 0)
(5.9222 -0.0891931 0)
(5.93824 -0.105614 0)
(5.95658 -0.125033 0)
(5.97709 -0.148284 0)
(5.99938 -0.176393 0)
(6.02269 -0.210529 0)
(6.04571 -0.251841 0)
(6.06638 -0.301093 0)
(6.08194 -0.357994 0)
(6.08938 -0.420281 0)
(10.0083 0.218019 0)
(10.1103 0.654668 0)
(10.3067 1.05485 0)
(10.5624 1.38922 0)
(10.8345 1.64625 0)
(11.0904 1.82539 0)
(11.3084 1.93297 0)
(11.4752 1.97982 0)
(11.586 1.97861 0)
(11.6423 1.94171 0)
(11.6492 1.87999 0)
(11.6139 1.80236 0)
(11.544 1.71564 0)
(11.4467 1.62486 0)
(11.3286 1.53355 0)
(11.1952 1.44407 0)
(11.0512 1.35792 0)
(10.9002 1.27598 0)
(10.7453 1.1987 0)
(10.5886 1.12622 0)
(10.4321 1.05853 0)
(10.277 0.995462 0)
(10.1244 0.936793 0)
(9.97496 0.882258 0)
(9.82925 0.831579 0)
(9.68762 0.784476 0)
(9.55029 0.740674 0)
(9.41742 0.699913 0)
(9.28906 0.66195 0)
(9.16522 0.626558 0)
(9.04585 0.593525 0)
(8.93089 0.562661 0)
(8.82024 0.533788 0)
(8.71381 0.506744 0)
(8.61146 0.481384 0)
(8.51307 0.457572 0)
(8.41851 0.435186 0)
(8.32765 0.414116 0)
(8.24036 0.394258 0)
(8.15651 0.375521 0)
(8.07596 0.357819 0)
(7.99861 0.341075 0)
(7.92432 0.325218 0)
(7.85298 0.310183 0)
(7.78448 0.295909 0)
(7.71872 0.282342 0)
(7.65558 0.269431 0)
(7.59498 0.257129 0)
(7.53682 0.245393 0)
(7.48101 0.234184 0)
(7.42747 0.223463 0)
(7.37612 0.213196 0)
(7.32689 0.203351 0)
(7.2797 0.193897 0)
(7.23449 0.184808 0)
(7.19119 0.176055 0)
(7.14974 0.167614 0)
(7.1101 0.159461 0)
(7.0722 0.151574 0)
(7.036 0.143932 0)
(7.00146 0.136513 0)
(6.96852 0.129298 0)
(6.93716 0.122267 0)
(6.90734 0.115403 0)
(6.87903 0.108687 0)
(6.85219 0.102101 0)
(6.8268 0.095627 0)
(6.80284 0.0892467 0)
(6.78028 0.0829422 0)
(6.75912 0.0766949 0)
(6.73934 0.0704854 0)
(6.72092 0.0642938 0)
(6.70387 0.0580988 0)
(6.68817 0.0518778 0)
(6.67384 0.0456066 0)
(6.66087 0.0392584 0)
(6.64927 0.0328038 0)
(6.63907 0.02621 0)
(6.63026 0.0194399 0)
(6.62289 0.012451 0)
(6.61698 0.00519447 0)
(6.61256 -0.00238701 0)
(6.60967 -0.010361 0)
(6.60837 -0.018808 0)
(6.6087 -0.0278253 0)
(6.61072 -0.0375313 0)
(6.61451 -0.0480713 0)
(6.62011 -0.0596258 0)
(6.62761 -0.0724197 0)
(6.63704 -0.0867348 0)
(6.64843 -0.102924 0)
(6.66175 -0.121429 0)
(6.67688 -0.142788 0)
(6.69356 -0.167648 0)
(6.71133 -0.196741 0)
(6.72938 -0.230819 0)
(6.74653 -0.270508 0)
(6.76115 -0.316047 0)
(6.77127 -0.366883 0)
(6.77494 -0.421231 0)
(10.0055 0.173537 0)
(10.0768 0.525069 0)
(10.2204 0.858661 0)
(10.4186 1.15337 0)
(10.645 1.39812 0)
(10.8768 1.58878 0)
(11.096 1.72593 0)
(11.2886 1.81374 0)
(11.4458 1.85874 0)
(11.5634 1.86845 0)
(11.641 1.8504 0)
(11.6808 1.81153 0)
(11.6864 1.75782 0)
(11.6623 1.69419 0)
(11.6132 1.62452 0)
(11.5435 1.55177 0)
(11.4574 1.47812 0)
(11.3585 1.40513 0)
(11.2498 1.33389 0)
(11.1341 1.2651 0)
(11.0134 1.19922 0)
(10.8896 1.13648 0)
(10.7642 1.07699 0)
(10.6383 1.02075 0)
(10.5128 0.967686 0)
(10.3885 0.917703 0)
(10.266 0.87066 0)
(10.1457 0.826405 0)
(10.0279 0.78478 0)
(9.91289 0.745624 0)
(9.80086 0.708781 0)
(9.6919 0.674099 0)
(9.5861 0.641432 0)
(9.4835 0.610642 0)
(9.38409 0.581602 0)
(9.28788 0.554188 0)
(9.19482 0.528289 0)
(9.10488 0.503799 0)
(9.01799 0.48062 0)
(8.9341 0.458662 0)
(8.85313 0.43784 0)
(8.77503 0.418076 0)
(8.6997 0.399299 0)
(8.62708 0.38144 0)
(8.55709 0.364438 0)
(8.48966 0.348235 0)
(8.4247 0.332777 0)
(8.36216 0.318013 0)
(8.30195 0.303898 0)
(8.24401 0.290387 0)
(8.18827 0.277441 0)
(8.13467 0.26502 0)
(8.08314 0.25309 0)
(8.03363 0.241616 0)
(7.98607 0.230567 0)
(7.94042 0.219914 0)
(7.89663 0.209626 0)
(7.85463 0.199679 0)
(7.8144 0.190045 0)
(7.77588 0.180702 0)
(7.73904 0.171624 0)
(7.70383 0.162789 0)
(7.67023 0.154174 0)
(7.63819 0.14576 0)
(7.6077 0.137523 0)
(7.57871 0.129443 0)
(7.55122 0.121499 0)
(7.52519 0.113671 0)
(7.50061 0.105936 0)
(7.47746 0.0982737 0)
(7.45573 0.090661 0)
(7.43541 0.0830748 0)
(7.41649 0.0754905 0)
(7.39896 0.0678821 0)
(7.38284 0.0602214 0)
(7.36811 0.0524781 0)
(7.35479 0.0446187 0)
(7.34289 0.0366061 0)
(7.33241 0.0283987 0)
(7.32339 0.0199494 0)
(7.31583 0.0112043 0)
(7.30977 0.00210124 0)
(7.30524 -0.00743236 0)
(7.30227 -0.0174817 0)
(7.30089 -0.0281479 0)
(7.30114 -0.0395516 0)
(7.30307 -0.0518378 0)
(7.30669 -0.0651815 0)
(7.31203 -0.0797945 0)
(7.31909 -0.0959331 0)
(7.32783 -0.113905 0)
(7.33814 -0.134077 0)
(7.34984 -0.156875 0)
(7.36262 -0.182773 0)
(7.37597 -0.212268 0)
(7.38918 -0.245812 0)
(7.40123 -0.283699 0)
(7.41089 -0.325891 0)
(7.41674 -0.37179 0)
(7.41754 -0.420032 0)
(10.004 0.142081 0)
(10.0556 0.430825 0)
(10.1623 0.710302 0)
(10.3152 0.966058 0)
(10.4981 1.18914 0)
(10.6963 1.37488 0)
(10.8964 1.52169 0)
(11.0868 1.63048 0)
(11.2584 1.70411 0)
(11.4051 1.74663 0)
(11.5236 1.76267 0)
(11.6126 1.75698 0)
(11.6727 1.73408 0)
(11.7058 1.69801 0)
(11.7142 1.65228 0)
(11.7008 1.59981 0)
(11.6686 1.54295 0)
(11.6204 1.48356 0)
(11.559 1.4231 0)
(11.4867 1.36263 0)
(11.4057 1.30297 0)
(11.318 1.24467 0)
(11.225 1.18815 0)
(11.1283 1.13365 0)
(11.0289 1.08134 0)
(10.9279 1.03129 0)
(10.8261 0.983528 0)
(10.7242 0.938027 0)
(10.6226 0.894741 0)
(10.522 0.853602 0)
(10.4225 0.814528 0)
(10.3247 0.777427 0)
(10.2285 0.742205 0)
(10.1343 0.708766 0)
(10.0423 0.677014 0)
(9.95235 0.646856 0)
(9.86472 0.618199 0)
(9.7794 0.590957 0)
(9.69643 0.565046 0)
(9.61581 0.540385 0)
(9.53756 0.516899 0)
(9.46166 0.494518 0)
(9.38809 0.473172 0)
(9.31683 0.4528 0)
(9.24784 0.43334 0)
(9.18109 0.414736 0)
(9.11654 0.396935 0)
(9.05414 0.379888 0)
(8.99386 0.363548 0)
(8.93566 0.347869 0)
(8.87948 0.33281 0)
(8.82529 0.318331 0)
(8.77304 0.304396 0)
(8.72268 0.290969 0)
(8.67419 0.278016 0)
(8.62751 0.265506 0)
(8.58261 0.253407 0)
(8.53945 0.241691 0)
(8.49799 0.23033 0)
(8.4582 0.219297 0)
(8.42004 0.208566 0)
(8.38349 0.198112 0)
(8.34852 0.187911 0)
(8.31509 0.177938 0)
(8.28319 0.16817 0)
(8.25279 0.158583 0)
(8.22386 0.149154 0)
(8.1964 0.13986 0)
(8.17039 0.130676 0)
(8.1458 0.121578 0)
(8.12264 0.112541 0)
(8.10088 0.10354 0)
(8.08053 0.0945455 0)
(8.06158 0.08553 0)
(8.04402 0.076462 0)
(8.02787 0.0673078 0)
(8.01312 0.0580308 0)
(7.99978 0.0485905 0)
(7.98786 0.038942 0)
(7.97737 0.0290349 0)
(7.96832 0.018812 0)
(7.96075 0.00820821 0)
(7.95466 -0.00285151 0)
(7.95007 -0.0144539 0)
(7.947 -0.0267 0)
(7.94547 -0.0397081 0)
(7.9455 -0.0536171 0)
(7.94707 -0.0685904 0)
(7.95018 -0.0848198 0)
(7.95478 -0.102529 0)
(7.96079 -0.121977 0)
(7.96806 -0.143457 0)
(7.97638 -0.167291 0)
(7.98541 -0.193815 0)
(7.99468 -0.223347 0)
(8.00356 -0.256133 0)
(8.01124 -0.292268 0)
(8.01677 -0.33158 0)
(8.01917 -0.373511 0)
(8.01758 -0.417024 0)
(10.003 0.118918 0)
(10.0416 0.360504 0)
(10.1226 0.596942 0)
(10.2414 0.818251 0)
(10.388 1.0176 0)
(10.5529 1.19084 0)
(10.727 1.33582 0)
(10.9013 1.45212 0)
(11.0684 1.54067 0)
(11.2223 1.60342 0)
(11.3584 1.64301 0)
(11.4742 1.66238 0)
(11.5682 1.66462 0)
(11.6403 1.65272 0)
(11.6911 1.62945 0)
(11.7219 1.59731 0)
(11.7343 1.55845 0)
(11.7303 1.51471 0)
(11.7117 1.46759 0)
(11.6804 1.41835 0)
(11.6382 1.36795 0)
(11.5868 1.3172 0)
(11.5278 1.26667 0)
(11.4624 1.21684 0)
(11.392 1.16804 0)
(11.3176 1.12051 0)
(11.2401 1.07442 0)
(11.1603 1.02989 0)
(11.0789 0.986982 0)
(10.9966 0.945719 0)
(10.9138 0.906107 0)
(10.8309 0.868127 0)
(10.7483 0.831747 0)
(10.6664 0.796923 0)
(10.5853 0.763604 0)
(10.5052 0.731733 0)
(10.4265 0.701251 0)
(10.3491 0.672098 0)
(10.2732 0.644212 0)
(10.1989 0.617533 0)
(10.1263 0.591999 0)
(10.0554 0.567554 0)
(9.98624 0.544139 0)
(9.91887 0.521701 0)
(9.85329 0.500187 0)
(9.78952 0.479546 0)
(9.72755 0.45973 0)
(9.66739 0.440692 0)
(9.60902 0.422388 0)
(9.55243 0.404776 0)
(9.49761 0.387816 0)
(9.44453 0.371469 0)
(9.39317 0.355698 0)
(9.34351 0.340468 0)
(9.29553 0.325746 0)
(9.24921 0.311498 0)
(9.20451 0.297695 0)
(9.16143 0.284305 0)
(9.11993 0.2713 0)
(9.07999 0.258651 0)
(9.04158 0.246333 0)
(9.0047 0.234317 0)
(8.96931 0.222579 0)
(8.93539 0.211092 0)
(8.90294 0.19983 0)
(8.87192 0.18877 0)
(8.84234 0.177885 0)
(8.81416 0.16715 0)
(8.78739 0.15654 0)
(8.76201 0.146027 0)
(8.738 0.135585 0)
(8.71537 0.125185 0)
(8.69411 0.114798 0)
(8.67422 0.104392 0)
(8.65568 0.0939341 0)
(8.63851 0.0833881 0)
(8.62271 0.0727149 0)
(8.60828 0.061872 0)
(8.59523 0.0508121 0)
(8.58356 0.0394828 0)
(8.57329 0.0278254 0)
(8.56442 0.0157738 0)
(8.55696 0.00325278 0)
(8.55092 -0.00982321 0)
(8.54631 -0.0235521 0)
(8.54311 -0.0380462 0)
(8.54133 -0.0534345 0)
(8.54094 -0.0698646 0)
(8.5419 -0.0875048 0)
(8.54413 -0.106545 0)
(8.54752 -0.127195 0)
(8.55191 -0.149683 0)
(8.55707 -0.174244 0)
(8.56267 -0.201104 0)
(8.5683 -0.230454 0)
(8.57342 -0.262406 0)
(8.57738 -0.296938 0)
(8.57948 -0.333824 0)
(8.579 -0.372574 0)
(8.57538 -0.412395 0)
(10.0023 0.101281 0)
(10.0321 0.306686 0)
(10.095 0.50896 0)
(10.1884 0.701089 0)
(10.3062 0.877936 0)
(10.4421 1.0361 0)
(10.59 1.1735 0)
(10.7436 1.28925 0)
(10.8969 1.38341 0)
(11.0448 1.45681 0)
(11.1833 1.51084 0)
(11.3092 1.54725 0)
(11.4203 1.56799 0)
(11.5152 1.57512 0)
(11.5935 1.57066 0)
(11.6552 1.55654 0)
(11.7009 1.53453 0)
(11.7314 1.50622 0)
(11.748 1.47301 0)
(11.7517 1.43609 0)
(11.7439 1.39649 0)
(11.7259 1.35507 0)
(11.6989 1.31251 0)
(11.6641 1.26939 0)
(11.6226 1.22617 0)
(11.5754 1.18322 0)
(11.5234 1.14081 0)
(11.4674 1.09917 0)
(11.4082 1.05845 0)
(11.3464 1.01878 0)
(11.2826 0.98024 0)
(11.2173 0.942883 0)
(11.151 0.90674 0)
(11.084 0.871824 0)
(11.0166 0.838131 0)
(10.9492 0.805649 0)
(10.8821 0.774356 0)
(10.8153 0.744223 0)
(10.7491 0.715218 0)
(10.6837 0.687303 0)
(10.6192 0.660441 0)
(10.5557 0.63459 0)
(10.4933 0.60971 0)
(10.4321 0.585758 0)
(10.3721 0.562695 0)
(10.3134 0.540478 0)
(10.2561 0.519068 0)
(10.2001 0.498425 0)
(10.1455 0.478512 0)
(10.0923 0.45929 0)
(10.0406 0.440723 0)
(9.99026 0.422777 0)
(9.94136 0.405417 0)
(9.89391 0.38861 0)
(9.84789 0.372323 0)
(9.80329 0.356527 0)
(9.76012 0.34119 0)
(9.71837 0.326283 0)
(9.67802 0.311778 0)
(9.63908 0.297646 0)
(9.60152 0.28386 0)
(9.56533 0.270393 0)
(9.53052 0.257218 0)
(9.49706 0.24431 0)
(9.46495 0.231641 0)
(9.43418 0.219186 0)
(9.40474 0.206918 0)
(9.37662 0.194811 0)
(9.34982 0.182837 0)
(9.32433 0.170969 0)
(9.30014 0.159178 0)
(9.27726 0.147434 0)
(9.25567 0.135706 0)
(9.23538 0.123962 0)
(9.21638 0.112165 0)
(9.19869 0.10028 0)
(9.18229 0.0882644 0)
(9.16719 0.0760754 0)
(9.1534 0.0636645 0)
(9.14092 0.0509787 0)
(9.12975 0.0379591 0)
(9.11989 0.0245404 0)
(9.11135 0.0106492 0)
(9.10413 -0.00379682 0)
(9.0982 -0.01889 0)
(9.09357 -0.0347344 0)
(9.09019 -0.0514464 0)
(9.08804 -0.0691562 0)
(9.08705 -0.0880075 0)
(9.08713 -0.108157 0)
(9.08816 -0.129771 0)
(9.08996 -0.153021 0)
(9.0923 -0.178072 0)
(9.0949 -0.205069 0)
(9.09738 -0.234113 0)
(9.09929 -0.265231 0)
(9.10014 -0.298339 0)
(9.09939 -0.3332 0)
(9.09653 -0.369391 0)
(9.09116 -0.406298 0)
(10.0018 0.0874712 0)
(10.0254 0.264511 0)
(10.0752 0.439461 0)
(10.1499 0.607268 0)
(10.2453 0.764052 0)
(10.3574 0.907081 0)
(10.4819 1.03455 0)
(10.6145 1.14546 0)
(10.7507 1.23955 0)
(10.8865 1.31707 0)
(11.0185 1.37873 0)
(11.1437 1.42553 0)
(11.2598 1.45867 0)
(11.3651 1.47952 0)
(11.4583 1.48946 0)
(11.539 1.4899 0)
(11.6068 1.48219 0)
(11.6619 1.4676 0)
(11.7047 1.44731 0)
(11.7358 1.42237 0)
(11.756 1.39372 0)
(11.7661 1.36218 0)
(11.767 1.32845 0)
(11.7595 1.29313 0)
(11.7446 1.25675 0)
(11.723 1.21971 0)
(11.6955 1.18239 0)
(11.663 1.14506 0)
(11.6261 1.10797 0)
(11.5854 1.07129 0)
(11.5415 1.03519 0)
(11.4949 0.999763 0)
(11.4462 0.965109 0)
(11.3956 0.931289 0)
(11.3437 0.898348 0)
(11.2907 0.866315 0)
(11.2369 0.835206 0)
(11.1826 0.805027 0)
(11.1281 0.775774 0)
(11.0735 0.747438 0)
(11.0191 0.720004 0)
(10.9649 0.693453 0)
(10.9111 0.667762 0)
(10.8579 0.642905 0)
(10.8054 0.618857 0)
(10.7536 0.595588 0)
(10.7026 0.57307 0)
(10.6524 0.551273 0)
(10.6033 0.530166 0)
(10.5551 0.509721 0)
(10.508 0.489906 0)
(10.4619 0.470692 0)
(10.4169 0.45205 0)
(10.3731 0.433951 0)
(10.3303 0.416365 0)
(10.2888 0.399264 0)
(10.2484 0.382621 0)
(10.2092 0.366408 0)
(10.1711 0.350598 0)
(10.1343 0.335164 0)
(10.0986 0.32008 0)
(10.0642 0.305319 0)
(10.0309 0.290855 0)
(9.99885 0.276662 0)
(9.96798 0.262714 0)
(9.93832 0.248984 0)
(9.90985 0.235446 0)
(9.88257 0.222073 0)
(9.85649 0.208836 0)
(9.83161 0.195709 0)
(9.80792 0.182661 0)
(9.78543 0.169662 0)
(9.76413 0.156679 0)
(9.74404 0.14368 0)
(9.72514 0.130628 0)
(9.70744 0.117486 0)
(9.69094 0.104212 0)
(9.67565 0.0907617 0)
(9.66157 0.0770879 0)
(9.64869 0.0631378 0)
(9.63702 0.0488538 0)
(9.62655 0.0341724 0)
(9.61729 0.0190238 0)
(9.6092 0.00333055 0)
(9.60229 -0.0129926 0)
(9.59652 -0.0300397 0)
(9.59186 -0.0479138 0)
(9.58825 -0.066727 0)
(9.58562 -0.0865993 0)
(9.58387 -0.107657 0)
(9.58287 -0.130028 0)
(9.58245 -0.153838 0)
(9.5824 -0.179197 0)
(9.58246 -0.206192 0)
(9.58231 -0.234863 0)
(9.58158 -0.265185 0)
(9.57989 -0.297044 0)
(9.57683 -0.33021 0)
(9.57202 -0.364326 0)
(9.56518 -0.398908 0)
(10.0015 0.0764034 0)
(10.0206 0.23075 0)
(10.0608 0.383587 0)
(10.1214 0.531174 0)
(10.1995 0.670541 0)
(10.2925 0.799494 0)
(10.3973 0.916502 0)
(10.5108 1.02064 0)
(10.6299 1.11149 0)
(10.7514 1.18908 0)
(10.8726 1.25373 0)
(10.9911 1.30601 0)
(11.1047 1.34668 0)
(11.2117 1.37661 0)
(11.3107 1.39675 0)
(11.4007 1.40809 0)
(11.4812 1.41161 0)
(11.5518 1.40829 0)
(11.6124 1.39905 0)
(11.6631 1.38475 0)
(11.7042 1.36619 0)
(11.7361 1.34409 0)
(11.7594 1.3191 0)
(11.7747 1.2918 0)
(11.7824 1.26269 0)
(11.7833 1.23221 0)
(11.7779 1.20074 0)
(11.7669 1.1686 0)
(11.7508 1.13607 0)
(11.7302 1.10337 0)
(11.7057 1.0707 0)
(11.6776 1.03822 0)
(11.6465 1.00606 0)
(11.6128 0.974317 0)
(11.5768 0.943086 0)
(11.5389 0.912429 0)
(11.4994 0.882394 0)
(11.4587 0.85302 0)
(11.4169 0.824333 0)
(11.3743 0.796348 0)
(11.3312 0.769075 0)
(11.2876 0.742515 0)
(11.2439 0.716666 0)
(11.2 0.691521 0)
(11.1563 0.667067 0)
(11.1127 0.643292 0)
(11.0694 0.620177 0)
(11.0265 0.597706 0)
(10.9841 0.575857 0)
(10.9423 0.55461 0)
(10.9011 0.533943 0)
(10.8605 0.513833 0)
(10.8207 0.494256 0)
(10.7816 0.475189 0)
(10.7434 0.456609 0)
(10.706 0.43849 0)
(10.6695 0.420808 0)
(10.6339 0.40354 0)
(10.5992 0.386661 0)