/*--------------------------------*- C++ -*----------------------------------*\
| =========                 |                                                 |
| \\      /  F ield         | OpenFOAM: The Open Source CFD Toolbox           |
|  \\    /   O peration     | Version:  2406                                  |
|   \\  /    A nd           | Website:  www.openfoam.com                      |
|    \\/     M anipulation  |                                                 |
\*---------------------------------------------------------------------------*/
FoamFile
{
    version     2.0;
    format      ascii;
    arch        "LSB;label=32;scalar=64";
    class       volScalarField;
    location    "450";
    object      p;
}
// * * * * * * * * * * * * * * * * * * * * * * * * * * * * * * * * * * * * * //

dimensions      [0 2 -2 0 0 0 0];

internalField   nonuniform List<scalar> 
150000
(
235.283
128.143
71.1535
47.8659
34.5113
25.6984
19.9303
15.9564
13.0078
10.6997
8.82385
7.25388
5.90931
4.73685
3.69963
2.77104
1.93129
1.16525
0.461119
-0.190489
-0.797133
-1.36499
-1.89918
-2.40394
-2.88288
-3.33904
-3.77503
-4.19308
-4.59514
-4.9829
-5.35784
-5.72126
-6.07432
-6.41803
-6.7533
-7.08095
-7.4017
-7.71622
-8.0251
-8.32888
-8.62805
-8.92305
-9.21429
-9.50216
-9.78699
-10.0691
-10.3488
-10.6263
-10.902
-11.176
-11.4486
-11.72
-11.9903
-12.2599
-12.5288
-12.7972
-13.0654
-13.3333
-13.6013
-13.8695
-14.138
-14.407
-14.6765
-14.9468
-15.218
-15.4903
-15.7637
-16.0385
-16.3147
-16.5926
-16.8723
-17.154
-17.4378
-17.7239
-18.0126
-18.304
-18.5983
-18.8958
-19.1968
-19.5014
-19.8101
-20.1231
-20.4407
-20.7635
-21.0918
-21.4261
-21.7669
-22.115
-22.4709
-22.8354
-23.2093
-23.5938
-23.9902
-24.4007
-24.8302
-25.2913
-25.8095
-26.4093
-27.1615
-29.0109
134.449
94.8225
65.2285
48.6476
37.231
28.7828
22.7427
18.3539
15.0166
12.3832
10.2458
8.46754
6.95647
5.64958
4.50252
3.48311
2.56737
1.73707
0.978068
0.279195
-0.368488
-0.972237
-1.53801
-2.07075
-2.57458
-3.05302
-3.50902
-3.94513
-4.36356
-4.7662
-5.15471
-5.53056
-5.89501
-6.24922
-6.59418
-6.93078
-7.25985
-7.58209
-7.89816
-8.20865
-8.5141
-8.81498
-9.11175
-9.4048
-9.69452
-9.98125
-10.2653
-10.547
-10.8266
-11.1043
-11.3804
-11.6552
-11.9287
-12.2014
-12.4732
-12.7445
-13.0153
-13.2859
-13.5565
-13.8271
-14.0979
-14.3692
-14.641
-14.9135
-15.1868
-15.4611
-15.7366
-16.0134
-16.2917
-16.5716
-16.8532
-17.1369
-17.4227
-17.7109
-18.0016
-18.295
-18.5915
-18.8912
-19.1944
-19.5014
-19.8126
-20.1282
-20.4487
-20.7746
-21.1062
-21.4443
-21.7893
-22.1422
-22.5038
-22.8753
-23.2579
-23.6535
-24.0646
-24.495
-24.951
-25.4436
-25.9902
-26.6168
-27.4251
-28.773
85.9238
74.6914
60.0429
47.9003
38.2875
30.6608
24.7846
20.2701
16.7277
13.8848
11.5577
9.61592
7.96659
6.54338
5.29828
4.19578
3.20919
2.31802
1.50638
0.761667
0.073817
-0.565336
-1.16249
-1.72317
-2.25202
-2.75294
-3.22924
-3.68374
-4.11888
-4.53677
-4.93923
-5.32788
-5.70412
-6.06919
-6.4242
-6.77012
-7.10784
-7.43815
-7.76174
-8.07925
-8.39128
-8.69833
-9.0009
-9.29941
-9.59428
-9.88587
-10.1745
-10.4606
-10.7443
-11.0259
-11.3058
-11.5841
-11.8611
-12.1369
-12.4119
-12.6862
-12.9599
-13.2332
-13.5064
-13.7796
-14.053
-14.3266
-14.6008
-14.8755
-15.1511
-15.4276
-15.7052
-15.9841
-16.2645
-16.5464
-16.8301
-17.1158
-17.4037
-17.6939
-17.9866
-18.2822
-18.5807
-18.8826
-19.1881
-19.4974
-19.811
-20.1292
-20.4524
-20.7811
-21.1158
-21.4573
-21.8062
-22.1634
-22.53
-22.9074
-23.2972
-23.7016
-24.1238
-24.568
-25.0402
-25.5487
-26.1036
-26.7149
-27.4022
-28.1938
65.2897
61.645
53.4221
44.6551
37.0743
30.7042
25.4538
21.1893
17.7161
14.8568
12.474
10.4622
8.74078
7.24911
5.94128
4.78237
3.74543
2.8095
1.95804
1.17788
0.45838
-0.209107
-0.831705
-1.41532
-1.9649
-2.48462
-2.97801
-3.44811
-3.89752
-4.3285
-4.74301
-5.14276
-5.52925
-5.90383
-6.26766
-6.62179
-6.96715
-7.30459
-7.63485
-7.95862
-8.27651
-8.58908
-8.89684
-9.20025
-9.49974
-9.7957
-10.0885
-10.3784
-10.6659
-10.9511
-11.2343
-11.5158
-11.7959
-12.0747
-12.3525
-12.6294
-12.9057
-13.1815
-13.4571
-13.7326
-14.0082
-14.284
-14.5602
-14.837
-15.1145
-15.3929
-15.6724
-15.9532
-16.2353
-16.519
-16.8044
-17.0918
-17.3813
-17.6732
-17.9676
-18.2649
-18.5651
-18.8687
-19.1758
-19.4869
-19.8022
-20.1222
-20.4473
-20.7779
-21.1147
-21.4583
-21.8094
-22.169
-22.5382
-22.9182
-23.3107
-23.7178
-24.1419
-24.5862
-25.054
-25.5484
-26.0703
-26.6133
-27.158
-27.6602
52.6373
51.3078
46.6455
40.6869
34.9925
29.8675
25.3695
21.5183
18.256
15.4911
13.136
11.1154
9.36683
7.83967
6.49357
5.29656
4.22321
3.25325
2.37037
1.5614
0.815576
0.124072
-0.520437
-1.12406
-1.69193
-2.22839
-2.73714
-3.22136
-3.68377
-4.12675
-4.55234
-4.96236
-5.35839
-5.74183
-6.11391
-6.47574
-6.8283
-7.17248
-7.50905
-7.83875
-8.16221
-8.48003
-8.79274
-9.10081
-9.40472
-9.70485
-10.0016
-10.2953
-10.5863
-10.8749
-11.1614
-11.4459
-11.7289
-12.0105
-12.291
-12.5705
-12.8492
-13.1274
-13.4052
-13.6829
-13.9606
-14.2384
-14.5165
-14.7952
-15.0745
-15.3547
-15.6359
-15.9182
-16.202
-16.4872
-16.7742
-17.063
-17.354
-17.6472
-17.943
-18.2416
-18.5431
-18.8479
-19.1563
-19.4686
-19.7851
-20.1062
-20.4323
-20.764
-21.1017
-21.4461
-21.7978
-22.1578
-22.5269
-22.9063
-23.2972
-23.701
-24.1193
-24.5531
-25.0028
-25.467
-25.9395
-26.4057
-26.8373
-27.1862
43.9385
43.4897
40.8215
36.8282
32.6132
28.5577
24.7989
21.4238
18.4521
15.8556
13.5901
11.61
9.87205
8.33796
6.97511
5.75623
4.65879
3.6642
2.75715
1.925
1.15727
0.445244
-0.218388
-0.839774
-1.42412
-1.97584
-2.49874
-2.99607
-3.47065
-3.92493
-4.36104
-4.78084
-5.18599
-5.57794
-5.95799
-6.32727
-6.68681
-7.03753
-7.38027
-7.71575
-8.04467
-8.36763
-8.68519
-8.99785
-9.30609
-9.61034
-9.91098
-10.2084
-10.5029
-10.7948
-11.0844
-11.372
-11.6579
-11.9422
-12.2253
-12.5073
-12.7884
-13.0689
-13.3489
-13.6287
-13.9083
-14.1881
-14.468
-14.7485
-15.0295
-15.3113
-15.594
-15.8778
-16.163
-16.4496
-16.7378
-17.0279
-17.3201
-17.6144
-17.9113
-18.2108
-18.5132
-18.8189
-19.128
-19.4409
-19.7579
-20.0794
-20.4058
-20.7374
-21.0748
-21.4186
-21.7692
-22.1275
-22.494
-22.8695
-23.2548
-23.6505
-24.0567
-24.473
-24.8972
-25.3247
-25.7458
-26.1438
-26.4917
-26.7509
37.7549
37.6267
36.0112
33.2793
30.1548
26.9725
23.8825
20.9896
18.3487
15.9707
13.844
11.9472
10.2551
8.74225
7.38467
6.16102
5.05268
4.04365
3.12031
2.27111
1.48625
0.757449
0.0776428
-0.559172
-1.15813
-1.72364
-2.2595
-2.769
-3.25498
-3.71994
-4.16606
-4.59525
-5.0092
-5.40941
-5.79721
-6.17377
-6.54016
-6.89733
-7.24614
-7.58736
-7.92168
-8.24974
-8.57213
-8.88936
-9.20192
-9.51026
-9.81478
-10.1159
-10.4139
-10.7091
-11.0019
-11.2925
-11.5812
-11.8683
-12.1539
-12.4384
-12.7219
-13.0046
-13.2867
-13.5685
-13.8501
-14.1316
-14.4134
-14.6954
-14.978
-15.2613
-15.5454
-15.8306
-16.117
-16.4047
-16.6941
-16.9852
-17.2782
-17.5734
-17.8709
-18.171
-18.474
-18.78
-19.0893
-19.4022
-19.7191
-20.0401
-20.3658
-20.6963
-21.0322
-21.3739
-21.7217
-22.0762
-22.4377
-22.8065
-23.1828
-23.5664
-23.9564
-24.3509
-24.7462
-25.136
-25.5096
-25.8511
-26.1381
-26.3428
33.108
33.0789
32.0305
30.1075
27.7711
25.276
22.7554
20.3092
18.0029
15.8673
13.9108
12.1298
10.5135
9.04766
7.71688
6.50599
5.40083
4.38859
3.45786
2.59863
1.80221
1.06102
0.368513
-0.280979
-0.892375
-1.46994
-2.01739
-2.53796
-3.03449
-3.50946
-3.96506
-4.40322
-4.82565
-5.23387
-5.62923
-6.01295
-6.38609
-6.74965
-7.10449
-7.45142
-7.79114
-8.12432
-8.45155
-8.77337
-9.09028
-9.40274
-9.71118
-10.016
-10.3175
-10.6161
-10.9121
-11.2057
-11.4973
-11.7871
-12.0753
-12.3622
-12.648
-12.9329
-13.2172
-13.5009
-13.7844
-14.0677
-14.3511
-14.6348
-14.9188
-15.2035
-15.4889
-15.7752
-16.0626
-16.3514
-16.6415
-16.9334
-17.227
-17.5227
-17.8206
-18.1209
-18.4239
-18.7298
-19.0387
-19.3511
-19.667
-19.9868
-20.3108
-20.6392
-20.9724
-21.3106
-21.654
-22.0029
-22.3572
-22.717
-23.0818
-23.4506
-23.8219
-24.1928
-24.5587
-24.9128
-25.2449
-25.5412
-25.7843
-25.9549
29.4435
29.4397
28.7165
27.3218
25.5492
23.5814
21.5264
19.4707
17.4777
15.5853
13.8128
12.1673
10.6484
9.25065
7.96573
6.78422
5.69637
4.69268
3.76426
2.90296
2.10143
1.35308
0.652111
-0.00664535
-0.627727
-1.21514
-1.7724
-2.30262
-2.80856
-3.29263
-3.75699
-4.20356
-4.63403
-5.04992
-5.45259
-5.84326
-6.22303
-6.59288
-6.95371
-7.30631
-7.65143
-7.98974
-8.32183
-8.64828
-8.96958
-9.28622
-9.59862
-9.90718
-10.2123
-10.5143
-10.8135
-11.1101
-11.4046
-11.6972
-11.988
-12.2774
-12.5655
-12.8526
-13.139
-13.4247
-13.7099
-13.995
-14.28
-14.5651
-14.8505
-15.1364
-15.423
-15.7103
-15.9987
-16.2881
-16.579
-16.8713
-17.1653
-17.4612
-17.7591
-18.0592
-18.3618
-18.667
-18.9751
-19.2862
-19.6005
-19.9183
-20.2398
-20.5651
-20.8944
-21.2278
-21.5654
-21.9071
-22.2527
-22.6017
-22.9533
-23.3059
-23.6575
-24.0046
-24.3425
-24.6645
-24.9614
-25.2221
-25.4334
-25.582
26.4563
26.4565
25.9317
24.8895
23.5204
21.9529
20.2706
18.5446
16.8309
15.1678
13.5786
12.0767
10.6677
9.35252
8.12829
6.99024
5.93251
4.9487
4.0324
3.17739
2.37782
1.62826
0.923766
0.259855
-0.36751
-0.961953
-1.52672
-2.06469
-2.57848
-3.07038
-3.54247
-3.9966
-4.43443
-4.85746
-5.26701
-5.66431
-6.05044
-6.42639
-6.79305
-7.15123
-7.50168
-7.84507
-8.18202
-8.51309
-8.8388
-9.15963
-9.47602
-9.78839
-10.0971
-10.4025
-10.705
-11.0048
-11.3022
-11.5975
-11.8909
-12.1828
-12.4733
-12.7626
-13.051
-13.3386
-13.6257
-13.9124
-14.199
-14.4855
-14.7722
-15.0592
-15.3468
-15.635
-15.9241
-16.2141
-16.5054
-16.7979
-17.092
-17.3877
-17.6853
-17.9849
-18.2866
-18.5907
-18.8974
-19.2066
-19.5187
-19.8338
-20.1519
-20.4732
-20.7977
-21.1253
-21.456
-21.7894
-22.1251
-22.4622
-22.7996
-23.1354
-23.4673
-23.7917
-24.1039
-24.3977
-24.6656
-24.8984
-25.0864
-25.2205
23.9619
23.9609
23.5641
22.7633
21.6863
20.4229
19.0363
17.5833
16.1114
14.6555
13.2397
11.8799
10.5853
9.36062
8.20682
7.12267
6.10539
5.15125
4.25604
3.41537
2.62486
1.88027
1.1776
0.51313
-0.116602
-0.714749
-1.28419
-1.82754
-2.34717
-2.84522
-3.32362
-3.78414
-4.22836
-4.6577
-5.07347
-5.47684
-5.86887
-6.25055
-6.62275
-6.98628
-7.34188
-7.69021
-8.0319
-8.36752
-8.69758
-9.02258
-9.34295
-9.6591
-9.97143
-10.2803
-10.586
-10.8889
-11.1892
-11.4873
-11.7834
-12.0778
-12.3706
-12.6621
-12.9525
-13.2421
-13.5309
-13.8192
-14.1072
-14.3951
-14.683
-14.9711
-15.2595
-15.5484
-15.8381
-16.1285
-16.4199
-16.7125
-17.0064
-17.3017
-17.5986
-17.8973
-18.1978
-18.5003
-18.805
-19.1119
-19.4212
-19.7329
-20.047
-20.3635
-20.6824
-21.0034
-21.3263
-21.6506
-21.9756
-22.3003
-22.6233
-22.9425
-23.2555
-23.5588
-23.848
-24.1178
-24.3617
-24.5726
-24.7435
-24.8679
21.8407
21.8378
21.5279
20.8974
20.035
19.0042
17.8519
16.6229
15.3564
14.0832
12.8258
11.6008
10.4189
9.28691
8.20847
7.18473
6.21519
5.29825
4.43152
3.61219
2.83722
2.1035
1.40796
0.747623
0.119672
-0.478547
-1.0495
-1.59547
-2.11857
-2.62072
-3.10368
-3.56908
-4.01838
-4.45293
-4.87397
-5.28261
-5.67988
-6.06671
-6.44397
-6.81244
-7.17285
-7.52585
-7.87205
-8.21203
-8.54629
-8.87531
-9.19955
-9.51942
-9.83529
-10.1475
-10.4565
-10.7624
-11.0657
-11.3666
-11.6653
-11.962
-12.2572
-12.5508
-12.8432
-13.1346
-13.4252
-13.7151
-14.0045
-14.2936
-14.5825
-14.8715
-15.1607
-15.4502
-15.7402
-16.0309
-16.3223
-16.6147
-16.9081
-17.2027
-17.4987
-17.7961
-18.095
-18.3956
-18.6979
-19.0019
-19.3079
-19.6156
-19.9251
-20.2363
-20.549
-20.8628
-21.1774
-21.4922
-21.8062
-22.1183
-22.427
-22.7303
-23.0257
-23.3098
-23.5789
-23.8282
-24.0526
-24.2465
-24.4046
-24.5226
20.0107
20.0066
19.7582
19.2513
18.5495
17.6981
16.7321
15.6865
14.5931
13.4782
12.3625
11.2615
10.1866
9.14562
8.14355
7.18321
6.26574
5.39106
4.55824
3.76576
3.01173
2.29403
1.61041
0.958649
0.336515
-0.258129
-0.827326
-1.37301
-1.89698
-2.40093
-2.88643
-3.35493
-3.80777
-4.24617
-4.67129
-5.08417
-5.48577
-5.87698
-6.25862
-6.63145
-6.99615
-7.35338
-7.70372
-8.04773
-8.38591
-8.71873
-9.04664
-9.37003
-9.6893
-10.0048
-10.3168
-10.6258
-10.9319
-11.2354
-11.5366
-11.8358
-12.1331
-12.4289
-12.7232
-13.0164
-13.3085
-13.5999
-13.8906
-14.1808
-14.4708
-14.7605
-15.0503
-15.3403
-15.6305
-15.9212
-16.2124
-16.5044
-16.7971
-17.0908
-17.3854
-17.6812
-17.9782
-18.2765
-18.576
-18.8769
-19.179
-19.4824
-19.7869
-20.0923
-20.3984
-20.7047
-21.0107
-21.3157
-21.6187
-21.9185
-22.2136
-22.5019
-22.7811
-23.0482
-23.2997
-23.5319
-23.7404
-23.921
-24.0696
-24.1833
18.4139
18.4091
18.2061
17.7911
17.2114
16.5001
15.6831
14.7876
13.8395
12.861
11.8702
10.8813
9.90559
8.95114
8.02368
7.12701
6.26335
5.43375
4.63834
3.87662
3.1476
2.45001
1.78235
1.14301
0.530328
-0.0573509
-0.62166
-1.16418
-1.68642
-2.18981
-2.67571
-3.14539
-3.60004
-4.04076
-4.46859
-4.88448
-5.28933
-5.68396
-6.06913
-6.44556
-6.8139
-7.17477
-7.52873
-7.87631
-8.218
-8.55426
-8.88551
-9.21216
-9.53457
-9.8531
-10.1681
-10.4798
-10.7885
-11.0946
-11.3982
-11.6996
-11.999
-12.2967
-12.5929
-12.8877
-13.1814
-13.4741
-13.766
-14.0572
-14.348
-14.6384
-14.9287
-15.2189
-15.5092
-15.7997
-16.0905
-16.3818
-16.6736
-16.9661
-17.2593
-17.5532
-17.848
-18.1436
-18.4401
-18.7374
-19.0355
-19.3342
-19.6333
-19.9327
-20.2319
-20.5305
-20.8278
-21.1231
-21.4154
-21.7034
-21.9856
-22.2602
-22.5248
-22.7768
-23.0133
-23.2311
-23.4267
-23.5968
-23.7385
-23.8494
17.0075
17.0025
16.8337
16.4887
16.0036
15.4028
14.7058
13.9338
13.1077
12.246
11.3644
10.4758
9.59053
8.71671
7.86033
7.02567
6.21567
5.4321
4.6759
3.94731
3.24609
2.57161
1.92299
1.29917
0.698993
0.121216
-0.43541
-0.972131
-1.49017
-1.99072
-2.47492
-2.94385
-3.39854
-3.83996
-4.26904
-4.68662
-5.09351
-5.49046
-5.87818
-6.25733
-6.62851
-6.9923
-7.34923
-7.6998
-8.04449
-8.38371
-8.7179
-9.04741
-9.37263
-9.69387
-10.0115
-10.3257
-10.6369
-10.9452
-11.251
-11.5545
-11.8559
-12.1554
-12.4532
-12.7495
-13.0445
-13.3384
-13.6313
-13.9234
-14.2149
-14.5058
-14.7964
-15.0867
-15.3768
-15.667
-15.9572
-16.2477
-16.5384
-16.8294
-17.1208
-17.4127
-17.705
-17.9977
-18.2909
-18.5844
-18.8782
-19.172
-19.4656
-19.7588
-20.051
-20.3419
-20.6307
-20.9166
-21.1986
-21.4755
-21.7458
-22.0077
-22.2593
-22.4982
-22.7219
-22.9277
-23.1128
-23.2748
-23.4112
-23.5205
15.7591
15.7542
15.612
15.3212
14.9104
14.3979
13.7984
13.1284
12.4048
11.6431
10.8567
10.057
9.25345
8.45377
7.66392
6.88842
6.13056
5.39264
4.6761
3.98178
3.30995
2.66053
2.03313
1.42715
0.841844
0.276346
-0.270256
-0.798912
-1.31058
-1.80622
-2.28676
-2.7531
-3.20613
-3.64666
-4.07551
-4.49342
-4.9011
-5.29923
-5.68845
-6.06934
-6.44248
-6.80838
-7.16755
-7.52045
-7.86751
-8.20915
-8.54575
-8.87767
-9.20525
-9.52883
-9.84869
-10.1651
-10.4784
-10.7888
-11.0965
-11.4018
-11.7049
-12.006
-12.3052
-12.6028
-12.899
-13.1939
-13.4877
-13.7804
-14.0724
-14.3636
-14.6543
-14.9445
-15.2344
-15.524
-15.8135
-16.1029
-16.3922
-16.6816
-16.9711
-17.2607
-17.5503
-17.84
-18.1297
-18.4192
-18.7085
-18.9972
-19.2853
-19.5722
-19.8576
-20.1408
-20.4213
-20.6982
-20.9705
-21.237
-21.4964
-21.747
-21.987
-22.2145
-22.4273
-22.6232
-22.7999
-22.9554
-23.0881
-23.1966
14.6437
14.639
14.5177
14.2699
13.9183
13.4771
12.9572
12.372
11.735
11.0589
10.3553
9.63412
8.90391
8.17179
7.44351
6.7236
6.01555
5.32192
4.64453
3.9846
3.34283
2.71954
2.11472
1.52815
0.959427
0.408007
-0.126734
-0.645482
-1.14896
-1.63791
-2.11308
-2.57519
-3.02499
-3.46316
-3.89038
-4.3073
-4.71455
-5.11272
-5.50236
-5.88402
-6.25819
-6.62536
-6.98598
-7.34047
-7.68924
-8.03267
-8.37111
-8.7049
-9.03437
-9.35982
-9.68153
-9.99978
-10.3148
-10.6269
-10.9362
-11.243
-11.5475
-11.8499
-12.1504
-12.449
-12.7462
-13.0418
-13.3362
-13.6295
-13.9217
-14.2131
-14.5037
-14.7936
-15.083
-15.3719
-15.6604
-15.9485
-16.2364
-16.524
-16.8113
-17.0984
-17.3852
-17.6717
-17.9577
-18.2432
-18.5279
-18.8116
-19.094
-19.3748
-19.6534
-19.9293
-20.2018
-20.4702
-20.7334
-20.9904
-21.2398
-21.4803
-21.7102
-21.9279
-22.1314
-22.319
-22.4889
-22.6394
-22.7694
-22.8777
13.6416
13.6372
13.5327
13.3193
13.0154
12.6323
12.1783
11.6639
11.1001
10.4976
9.86597
9.21401
8.54931
7.87838
7.20662
6.53845
5.87736
5.22608
4.58666
3.96056
3.34879
2.75197
2.17042
1.60419
1.05318
0.517094
-0.00443305
-0.511864
-1.00571
-1.48654
-1.9549
-2.41139
-2.8566
-3.29108
-3.71542
-4.13016
-4.53584
-4.93295
-5.322
-5.70346
-6.07776
-6.44535
-6.80662
-7.16196
-7.51173
-7.8563
-8.19597
-8.53107
-8.8619
-9.18873
-9.51183
-9.83145
-10.1478
-10.4612
-10.7718
-11.0798
-11.3854
-11.6888
-11.9901
-12.2896
-12.5874
-12.8836
-13.1784
-13.4719
-13.7642
-14.0555
-14.3458
-14.6353
-14.9239
-15.2119
-15.4992
-15.786
-16.0721
-16.3578
-16.6428
-16.9273
-17.2112
-17.4943
-17.7766
-18.0579
-18.3381
-18.6167
-18.8936
-19.1683
-19.4404
-19.7093
-19.9743
-20.2347
-20.4895
-20.7378
-20.9783
-21.2097
-21.4308
-21.6399
-21.8357
-22.0164
-22.1808
-22.3275
-22.4555
-22.5641
12.7369
12.7328
12.642
12.4565
12.1917
11.8564
11.4572
11.0023
10.5008
9.96145
9.39255
8.80159
8.1953
7.57958
6.95943
6.33905
5.72186
5.11065
4.50755
3.91423
3.33188
2.76137
2.20323
1.65777
1.12509
0.60514
0.0977444
-0.397361
-0.88051
-1.35209
-1.81252
-2.26225
-2.70174
-3.13143
-3.5518
-3.9633
-4.36637
-4.76146
-5.14898
-5.52933
-5.90291
-6.2701
-6.63126
-6.98672
-7.33682
-7.68186
-8.02216
-8.35799
-8.68962
-9.01732
-9.34132
-9.66187
-9.97917
-10.2935
-10.6049
-10.9137
-11.2201
-11.5242
-11.8261
-12.1261
-12.4243
-12.7208
-13.0157
-13.3092
-13.6014
-13.8923
-14.1821
-14.4709
-14.7587
-15.0455
-15.3315
-15.6167
-15.901
-16.1845
-16.4672
-16.749
-17.0298
-17.3095
-17.588
-17.8652
-18.1408
-18.4144
-18.6859
-18.9548
-19.2207
-19.4829
-19.7408
-19.9938
-20.2409
-20.4812
-20.7137
-20.9372
-21.1505
-21.3523
-21.5414
-21.7165
-21.8765
-22.0202
-22.147
-22.2562
11.917
11.9132
11.8336
11.671
11.4384
11.1428
10.7895
10.3849
9.93657
9.45181
8.93757
8.40036
7.84611
7.28008
6.70687
6.13042
5.55402
4.9804
4.41176
3.84984
3.296
2.75123
2.21626
1.69158
1.17747
0.674059
0.181345
-0.300773
-0.772477
-1.23401
-1.68566
-2.12774
-2.5606
-2.9846
-3.4001
-3.80747
-4.20707
-4.59927
-4.98443
-5.36288
-5.73497
-6.10102
-6.46134
-6.81624
-7.16601
-7.51092
-7.85125
-8.18724
-8.51915
-8.84721
-9.17163
-9.49264
-9.81043
-10.1252
-10.4371
-10.7464
-11.0532
-11.3576
-11.6598
-11.96
-12.2583
-12.5548
-12.8496
-13.1429
-13.4346
-13.725
-14.0141
-14.302
-14.5887
-14.8743
-15.1588
-15.4422
-15.7245
-16.0058
-16.2859
-16.5649
-16.8426
-17.1189
-17.3936
-17.6667
-17.9377
-18.2066
-18.4728
-18.7361
-18.996
-19.2519
-19.5033
-19.7494
-19.9894
-20.2225
-20.4478
-20.6643
-20.8709
-21.0665
-21.25
-21.4204
-21.5768
-21.7182
-21.8442
-21.9543
11.1712
11.1678
11.0975
10.9539
10.7481
10.4858
10.1711
9.80932
9.40661
8.96906
8.50258
8.01277
7.50484
6.98348
6.45288
5.91667
5.37797
4.83944
4.30324
3.77117
3.24466
2.72482
2.2125
1.70831
1.21271
0.725941
0.248161
-0.220599
-0.68039
-1.13133
-1.57359
-2.00737
-2.43294
-2.85053
-3.26045
-3.66296
-4.05837
-4.44698
-4.82906
-5.20492
-5.57484
-5.93909
-6.29794
-6.65166
-7.00051
-7.34471
-7.68452
-8.02015
-8.35183
-8.67976
-9.00414
-9.32517
-9.64302
-9.95788
-10.2699
-10.5793
-10.8861
-11.1905
-11.4927
-11.7928
-12.0909
-12.3872
-12.6816
-12.9743
-13.2655
-13.5551
-13.8433
-14.1301
-14.4155
-14.6996
-14.9824
-15.264
-15.5442
-15.8231
-16.1006
-16.3767
-16.6512
-16.9241
-17.195
-17.464
-17.7307
-17.9948
-18.2561
-18.514
-18.7683
-19.0183
-19.2635
-19.5033
-19.7369
-19.9636
-20.1825
-20.3927
-20.5934
-20.7836
-20.9624
-21.129
-21.2825
-21.4222
-21.5478
-21.6588
10.4909
10.4878
10.4253
10.2976
10.1143
9.88011
9.59824
9.27305
8.90962
8.51306
8.08839
7.64044
7.17377
6.69254
6.20053
5.70109
5.19714
4.6912
4.1854
3.68153
3.18104
2.68513
2.19472
1.71054
1.23314
0.762899
0.300072
-0.155189
-0.602823
-1.04284
-1.47532
-1.90037
-2.31814
-2.72881
-3.13259
-3.52969
-3.92034
-4.30476
-4.6832
-5.05589
-5.42306
-5.78495
-6.14179
-6.49379
-6.84118
-7.18417
-7.52296
-7.85775
-8.18873
-8.51609
-8.84
-9.16063
-9.47815
-9.79272
-10.1045
-10.4136
-10.7201
-11.0243
-11.3261
-11.6258
-11.9235
-12.2191
-12.5129
-12.8049
-13.0952
-13.3839
-13.6709
-13.9564
-14.2404
-14.5229
-14.8039
-15.0834
-15.3614
-15.6379
-15.9127
-16.1859
-16.4572
-16.7266
-16.9939
-17.2588
-17.5213
-17.7808
-18.0373
-18.2902
-18.5391
-18.7836
-19.0231
-19.2571
-19.4849
-19.7057
-19.919
-20.1238
-20.3193
-20.5049
-20.6797
-20.843
-20.9942
-21.1327
-21.2581
-21.3702
9.86886
9.86594
9.81001
9.69574
9.5315
9.3212
9.06738
8.77363
8.44417
8.08332
7.69534
7.28441
6.85449
6.4093
5.95223
5.48633
5.01432
4.53857
4.06114
3.58376
3.10792
2.63483
2.16547
1.70066
1.241
0.78698
0.338948
-0.102854
-0.538272
-0.967228
-1.3897
-1.80573
-2.21539
-2.61878
-3.01603
-3.40729
-3.79273
-4.17253
-4.54686
-4.91591
-5.27987
-5.63893
-5.99328
-6.34311
-6.6886
-7.02993
-7.36727
-7.70079
-8.03067
-8.35706
-8.68011
-8.99997
-9.3168
-9.63071
-9.94185
-10.2503
-10.5563
-10.8599
-11.1611
-11.4601
-11.757
-12.0519
-12.3448
-12.6359
-12.9251
-13.2125
-13.4983
-13.7823
-14.0647
-14.3454
-14.6245
-14.9019
-15.1776
-15.4515
-15.7237
-15.9938
-16.262
-16.528
-16.7916
-17.0527
-17.3109
-17.5662
-17.818
-18.0661
-18.31
-18.5494
-18.7837
-19.0124
-19.2348
-19.4504
-19.6586
-19.8586
-20.0497
-20.2313
-20.4027
-20.5633
-20.7126
-20.8501
-20.9756
-21.0889
9.29883
9.29615
9.2458
9.14295
8.99493
8.80504
8.57531
8.30869
8.00874
7.67909
7.3234
6.94525
6.54813
6.13531
5.70984
5.2745
4.83179
4.38393
3.93288
3.48032
3.02771
2.57627
2.12702
1.68081
1.23832
0.800104
0.366573
-0.0619494
-0.485232
-0.90312
-1.31552
-1.7224
-2.12375
-2.51962
-2.91007
-3.29521
-3.67512
-4.04995
-4.41981
-4.78486
-5.14524
-5.50111
-5.8526
-6.19987
-6.54308
-6.88237
-7.2179
-7.5498
-7.87821
-8.20328
-8.52513
-8.84389
-9.1597
-9.47265
-9.78288
-10.0905
-10.3956
-10.6983
-10.9986
-11.2967
-11.5926
-11.8865
-12.1783
-12.4682
-12.7562
-13.0422
-13.3265
-13.6089
-13.8896
-14.1684
-14.4454
-14.7206
-14.9939
-15.2653
-15.5346
-15.8019
-16.0668
-16.3294
-16.5895
-16.8468
-17.1011
-17.3521
-17.5996
-17.8431
-18.0824
-18.317
-18.5465
-18.7703
-18.9879
-19.1988
-19.4024
-19.5981
-19.7853
-19.9635
-20.132
-20.2903
-20.4381
-20.575
-20.7007
-20.8151
8.77565
8.77318
8.72761
8.63452
8.5004
8.32807
8.11913
7.87605
7.60182
7.29952
6.97229
6.62324
6.25539
5.87167
5.47479
5.06726
4.65139
4.22925
3.80267
3.37328
2.94249
2.51151
2.08137
1.65295
1.22698
0.804038
0.384614
-0.0309136
-0.442251
-0.849179
-1.25154
-1.64924
-2.04221
-2.43044
-2.81394
-3.19275
-3.56692
-3.93654
-4.30168
-4.66246
-5.01898
-5.37134
-5.71968
-6.0641
-6.40472
-6.74168
-7.07508
-7.40505
-7.7317
-8.05515
-8.37551
-8.69289
-9.0074
-9.31913
-9.62818
-9.93464
-10.2386
-10.5402
-10.8394
-11.1363
-11.4311
-11.7237
-12.0143
-12.3028
-12.5893
-12.8739
-13.1565
-13.4372
-13.716
-13.9928
-14.2677
-14.5406
-14.8114
-15.0802
-15.3468
-15.611
-15.8729
-16.1322
-16.3887
-16.6423
-16.8928
-17.1398
-17.3832
-17.6225
-17.8574
-18.0876
-18.3126
-18.5319
-18.7452
-18.9518
-19.1514
-19.3433
-19.527
-19.7022
-19.8682
-20.0247
-20.1713
-20.3077
-20.4336
-20.5491
8.29485
8.29257
8.25111
8.16642
8.04429
7.88712
7.69621
7.47363
7.2219
6.94366
6.64159
6.31839
5.97672
5.61916
5.24813
4.86591
4.47461
4.07614
3.67222
3.2644
2.85404
2.44233
2.03029
1.6188
1.20862
0.800383
0.3946
-0.00829634
-0.407962
-0.804125
-1.19658
-1.58516
-1.96976
-2.35032
-2.7268
-3.09918
-3.46748
-3.83173
-4.19198
-4.54829
-4.90073
-5.24939
-5.59433
-5.93566
-6.27347
-6.60784
-6.93888
-7.26667
-7.59132
-7.91291
-8.23154
-8.54729
-8.86026
-9.17053
-9.47818
-9.78328
-10.0859
-10.3862
-10.684
-10.9797
-11.2731
-11.5643
-11.8534
-12.1404
-12.4253
-12.7082
-12.9891
-13.2679
-13.5447
-13.8195
-14.0922
-14.3627
-14.6311
-14.8972
-15.161
-15.4223
-15.6811
-15.9371
-16.1903
-16.4404
-16.6872
-16.9304
-17.1698
-17.4051
-17.6359
-17.862
-18.0829
-18.2981
-18.5074
-18.7102
-18.9061
-19.0947
-19.2754
-19.4479
-19.6118
-19.7667
-19.9123
-20.0483
-20.1746
-20.2912
7.85259
7.85048
7.81258
7.73516
7.62341
7.47941
7.30422
7.09955
6.86757
6.61054
6.33075
6.03058
5.71234
5.3783
5.03066
4.67146
4.30262
3.92592
3.54295
3.15517
2.7639
2.37027
1.9753
1.57987
1.18475
0.79058
0.39792
0.0072315
-0.3811
-0.76676
-1.14949
-1.5291
-1.90542
-2.27835
-2.6478
-3.01372
-3.37609
-3.73489
-4.09013
-4.44185
-4.79008
-5.13487
-5.47626
-5.81433
-6.14913
-6.48073
-6.80921
-7.13464
-7.45708
-7.77662
-8.09332
-8.40726
-8.7185
-9.02712
-9.33317
-9.63673
-9.93785
-10.2366
-10.533
-10.8271
-11.119
-11.4087
-11.6962
-11.9815
-12.2648
-12.5459
-12.8249
-13.1018
-13.3766
-13.6492
-13.9196
-14.1877
-14.4536
-14.7171
-14.9781
-15.2366
-15.4923
-15.7452
-15.9951
-16.2417
-16.485
-16.7246
-16.9603
-17.1918
-17.4189
-17.6411
-17.8581
-18.0697
-18.2753
-18.4746
-18.6673
-18.8528
-19.0309
-19.2011
-19.3631
-19.5166
-19.6614
-19.7972
-19.9239
-20.0414
7.44556
7.4436
7.4088
7.33769
7.23497
7.10246
6.94101
6.75206
6.53747
6.29918
6.03919
5.75954
5.46229
5.14945
4.82296
4.48469
4.13638
3.77966
3.41603
3.04684
2.67335
2.29666
1.91775
1.53749
1.15666
0.775914
0.395822
0.0168766
-0.360506
-0.735976
-1.10924
-1.48007
-1.84825
-2.21365
-2.57614
-2.93563
-3.29205
-3.64537
-3.99557
-4.34263
-4.68656
-5.02737
-5.36511
-5.69978
-6.03145
-6.36015
-6.68592
-7.00883
-7.32892
-7.64625
-7.96087
-8.27283
-8.5822
-8.88901
-9.19332
-9.49519
-9.79465
-10.0917
-10.3865
-10.679
-10.9692
-11.2573
-11.5431
-11.8267
-12.1081
-12.3874
-12.6644
-12.9393
-13.212
-13.4824
-13.7505
-14.0163
-14.2796
-14.5405
-14.7988
-15.0544
-15.3071
-15.557
-15.8037
-16.047
-16.2869
-16.5231
-16.7553
-16.9833
-17.2068
-17.4254
-17.639
-17.8471
-18.0494
-18.2455
-18.4352
-18.6181
-18.7937
-18.9619
-19.1223
-19.2746
-19.4187
-19.5543
-19.6814
-19.7999
7.07089
7.06906
7.03696
6.97135
6.87653
6.75408
6.60468
6.42957
6.23033
6.00865
5.76626
5.50495
5.22652
4.93277
4.62544
4.30619
3.97663
3.63825
3.29243
2.94046
2.5835
2.22263
1.85879
1.49284
1.12553
0.757527
0.389425
0.0217271
-0.345127
-0.71076
-1.07485
-1.43713
-1.79737
-2.15539
-2.51102
-2.86415
-3.21469
-3.56255
-3.90769
-4.25007
-4.58966
-4.92645
-5.26045
-5.59167
-5.92011
-6.24581
-6.56878
-6.88906
-7.20669
-7.52169
-7.83411
-8.14398
-8.45134
-8.75623
-9.05868
-9.35874
-9.65642
-9.95177
-10.2448
-10.5356
-10.824
-11.1103
-11.3943
-11.6761
-11.9556
-12.233
-12.508
-12.7808
-13.0514
-13.3195
-13.5853
-13.8487
-14.1096
-14.3679
-14.6235
-14.8763
-15.1262
-15.373
-15.6166
-15.8569
-16.0935
-16.3264
-16.5553
-16.78
-17.0001
-17.2155
-17.4258
-17.6307
-17.83
-18.0233
-18.2102
-18.3906
-18.5642
-18.7305
-18.8894
-19.0407
-19.1842
-19.3197
-19.4472
-19.5666
6.72605
6.72434
6.6946
6.63383
6.54593
6.43231
6.29352
6.13061
5.94497
5.73803
5.51132
5.26641
5.00489
4.72835
4.43835
4.1364
3.82395
3.50237
3.17296
2.8369
2.4953
2.14917
1.79943
1.44691
1.09236
0.736432
0.379727
0.0227601
-0.334012
-0.690191
-1.04543
-1.39944
-1.75196
-2.10278
-2.45171
-2.79861
-3.14334
-3.4858
-3.82593
-4.16364
-4.49889
-4.83165
-5.16189
-5.4896
-5.81477
-6.1374
-6.4575
-6.77509
-7.09017
-7.40277
-7.7129
-8.02059
-8.32586
-8.62873
-8.92924
-9.22739
-9.52321
-9.81672
-10.1079
-10.3969
-10.6835
-10.9679
-11.2501
-11.53
-11.8076
-12.0829
-12.356
-12.6267
-12.895
-13.161
-13.4245
-13.6855
-13.9439
-14.1996
-14.4525
-14.7026
-14.9497
-15.1937
-15.4344
-15.6716
-15.9052
-16.135
-16.3608
-16.5823
-16.7993
-17.0116
-17.2189
-17.4209
-17.6173
-17.808
-17.9925
-18.1707
-18.3423
-18.507
-18.6647
-18.815
-18.958
-19.0935
-19.2213
-19.3415
6.40884
6.40724
6.37958
6.32305
6.24124
6.1354
6.00598
5.85387
5.68028
5.48646
5.27375
5.04352
4.79719
4.53616
4.26185
3.97562
3.67878
3.3726
3.05827
2.73689
2.40952
2.07711
1.74053
1.40061
1.05805
0.713523
0.367614
0.0208495
-0.326305
-0.673435
-1.02018
-1.36622
-1.71128
-2.05512
-2.39752
-2.73833
-3.07738
-3.41454
-3.74972
-4.08282
-4.41376
-4.7425
-5.06899
-5.39318
-5.71506
-6.03461
-6.3518
-6.66665
-6.97913
-7.28927
-7.59706
-7.90251
-8.20563
-8.50642
-8.80491
-9.10109
-9.39499
-9.68659
-9.97593
-10.263
-10.5478
-10.8303
-11.1105
-11.3885
-11.6641
-11.9375
-12.2084
-12.477
-12.7432
-13.007
-13.2682
-13.5268
-13.7827
-14.0359
-14.2863
-14.5338
-14.7781
-15.0193
-15.2572
-15.4915
-15.7222
-15.9491
-16.1719
-16.3904
-16.6045
-16.8139
-17.0184
-17.2177
-17.4116
-17.5998
-17.7822
-17.9583
-18.1282
-18.2914
-18.4479
-18.5975
-18.74
-18.8753
-19.0035
-19.1244
6.11734
6.11584
6.09
6.03721
5.96077
5.8618
5.74067
5.59814
5.43525
5.25313
5.05292
4.83585
4.60317
4.35615
4.09604
3.82408
3.54148
3.24938
2.94889
2.64106
2.32684
2.00716
1.68285
1.35469
1.02339
0.689589
0.353875
0.0167754
-0.321238
-0.659741
-0.998357
-1.33675
-1.67463
-2.01173
-2.34783
-2.68272
-3.01623
-3.34822
-3.67855
-4.00711
-4.33382
-4.65858
-4.98135
-5.30205
-5.62064
-5.93709
-6.25137
-6.56346
-6.87333
-7.18098
-7.48639
-7.78956
-8.09048
-8.38916
-8.68559
-8.97976
-9.27168
-9.56135
-9.84876
-10.1339
-10.4168
-10.6974
-10.9757
-11.2517
-11.5253
-11.7966
-12.0655
-12.332
-12.5961
-12.8576
-13.1165
-13.3728
-13.6263
-13.8771
-14.125
-14.3698
-14.6116
-14.8501
-15.0852
-15.3168
-15.5447
-15.7688
-15.9888
-16.2046
-16.416
-16.6227
-16.8246
-17.0213
-17.2129
-17.3989
-17.5791
-17.7535
-17.9217
-18.0836
-18.239
-18.3878
-18.53
-18.6653
-18.7937
-18.9153
5.84983
5.84842
5.8242
5.77471
5.70301
5.61013
5.49634
5.36231
5.20896
5.03726
4.84823
4.64296
4.42257
4.18817
3.94092
3.68193
3.41229
3.13306
2.84527
2.54989
2.24782
1.93993
1.62702
1.30983
0.989059
0.665324
0.339207
0.0112323
-0.318124
-0.648433
-0.979306
-1.3104
-1.64139
-1.97202
-2.30203
-2.63121
-2.95936
-3.28632
-3.61193
-3.93606
-4.25861
-4.57947
-4.89857
-5.21581
-5.53115
-5.84454
-6.15591
-6.46524
-6.7725
-7.07764
-7.38067
-7.68154
-7.98025
-8.27679
-8.57113
-8.86327
-9.15319
-9.44089
-9.72635
-10.0096
-10.2905
-10.5692
-10.8455
-11.1195
-11.3912
-11.6605
-11.9273
-12.1917
-12.4536
-12.7129
-12.9696
-13.2236
-13.4748
-13.7231
-13.9686
-14.2109
-14.4502
-14.6861
-14.9186
-15.1476
-15.3729
-15.5943
-15.8117
-16.0248
-16.2336
-16.4378
-16.6373
-16.8317
-17.021
-17.205
-17.3834
-17.556
-17.7228
-17.8834
-18.0379
-18.1861
-18.3278
-18.463
-18.5917
-18.7139
5.60482
5.60348
5.5807
5.53412
5.46664
5.37914
5.27187
5.1454
5.00054
4.83815
4.65913
4.46444
4.25509
4.03209
3.79647
3.54923
3.29139
3.02392
2.74776
2.46381
2.17293
1.87594
1.5736
1.26662
0.955658
0.64134
0.324226
0.00483737
-0.316351
-0.638904
-0.96243
-1.28657
-1.611
-1.93544
-2.25961
-2.5833
-2.90627
-3.22836
-3.5494
-3.86923
-4.18773
-4.50478
-4.82028
-5.13414
-5.44628
-5.75663
-6.06513
-6.37173
-6.67638
-6.97904