/*--------------------------------*- C++ -*----------------------------------*\
| =========                 |                                                 |
| \\      /  F ield         | OpenFOAM: The Open Source CFD Toolbox           |
|  \\    /   O peration     | Version:  2406                                  |
|   \\  /    A nd           | Website:  www.openfoam.com                      |
|    \\/     M anipulation  |                                                 |
\*---------------------------------------------------------------------------*/
FoamFile
{
    version     2.0;
    format      ascii;
    arch        "LSB;label=32;scalar=64";
    class       surfaceScalarField;
    location    "450";
    object      phi;
}
// * * * * * * * * * * * * * * * * * * * * * * * * * * * * * * * * * * * * * //

dimensions      [0 3 -1 0 0 0 0];

oriented        oriented;

internalField   nonuniform List<scalar> 
299000
(
0.0796643
0.0203357
0.0586791
0.0209852
0.0442547
0.0144245
0.0348019
0.00945278
0.0284999
0.00630196
0.0241896
0.00431029
0.0211379
0.00305171
0.0188884
0.00224953
0.0171644
0.00172398
0.0157982
0.00136622
0.0146853
0.00111287
0.0137584
0.000926865
0.0129725
0.00078592
0.0122963
0.000676195
0.0117075
0.000588814
0.0111896
0.000517891
0.0107302
0.0004594
0.0103197
0.000410501
0.00995058
0.00036914
0.00961679
0.000333796
0.00931346
0.000303323
0.00903663
0.000276839
0.00878297
0.000253657
0.00854973
0.000233235
0.00833459
0.000215139
0.00813557
0.000199018
0.00795099
0.000184587
0.00777938
0.00017161
0.00761948
0.000159893
0.00747021
0.000149272
0.0073306
0.000139611
0.00719981
0.000130794
0.00707708
0.00012272
0.00696178
0.000115307
0.0068533
0.000108481
0.00675112
0.00010218
0.00665477
9.63476e-05
0.00656383
9.09372e-05
0.00647792
8.59067e-05
0.0063967
8.12194e-05
0.00631986
7.68428e-05
0.00624711
7.27481e-05
0.0061782
6.89096e-05
0.0061129
6.53046e-05
0.00605098
6.19125e-05
0.00599227
5.87151e-05
0.00593657
5.56957e-05
0.00588373
5.28394e-05
0.0058336
5.01327e-05
0.00578604
4.75632e-05
0.00574092
4.51197e-05
0.00569813
4.27918e-05
0.00565756
4.05702e-05
0.00561911
3.8446e-05
0.0055827
3.64113e-05
0.00554824
3.44584e-05
0.00551566
3.25805e-05
0.00548489
3.0771e-05
0.00545586
2.90237e-05
0.00542853
2.73327e-05
0.00540284
2.56926e-05
0.00537874
2.40979e-05
0.0053562
2.25435e-05
0.00533517
2.10244e-05
0.00531564
1.95357e-05
0.00529756
1.80725e-05
0.00528093
1.66299e-05
0.00526573
1.5203e-05
0.00525194
1.37868e-05
0.00523957
1.2376e-05
0.0052286
1.09652e-05
0.00521905
9.5486e-06
0.00521093
8.11988e-06
0.00520426
6.67228e-06
0.00519906
5.19829e-06
0.00519537
3.68952e-06
0.00519324
2.13645e-06
0.00519271
5.28202e-07
0.00519386
-1.14795e-06
0.00519676
-2.90698e-06
0.00520153
-4.76676e-06
0.00520828
-6.74889e-06
0.00521716
-8.87997e-06
0.00522835
-1.11932e-05
0.00524208
-1.37313e-05
0.00525863
-1.65499e-05
0.00527836
-1.9725e-05
0.00530172
-2.33645e-05
0.00532935
-2.76301e-05
0.00536213
-3.27796e-05
0.00540138
-3.92513e-05
0.00544922
-4.78356e-05
0.00550925
-6.00311e-05
0.00558805
-7.8799e-05
0.00569828
-0.000110229
0.00586543
-0.000167148
0.00614147
-0.000276043
0.00663391
-0.000492443
0.00761011
-0.000976199
-0.00230962
0.00991973
0.105208
0.0151279
0.100188
0.026005
0.0901927
0.0244198
0.0797503
0.0198952
0.0705679
0.0154843
0.0629862
0.011892
0.0568437
0.00919416
0.0518633
0.00722994
0.0477868
0.00580052
0.0444065
0.00474649
0.0415647
0.00395469
0.039144
0.0033476
0.0370572
0.00287268
0.0352392
0.00249418
0.0336406
0.00218742
0.0322234
0.00193508
0.0309581
0.00172477
0.0298211
0.00154745
0.0287938
0.00139641
0.0278611
0.00126658
0.0270103
0.00115408
0.0262313
0.00105587
0.0255154
0.000969571
0.0248553
0.000893285
0.024245
0.000825479
0.0236791
0.000764905
0.0231531
0.000710544
0.0226632
0.000661549
0.0222059
0.000617215
0.0217782
0.000576953
0.0213775
0.000540262
0.0210016
0.000506718
0.0206484
0.00047596
0.020316
0.000447675
0.0200029
0.000421597
0.0197076
0.000397491
0.0194288
0.000375155
0.0191653
0.000354412
0.0189161
0.000335107
0.0186802
0.000317101
0.0184568
0.000300273
0.018245
0.000284517
0.0180442
0.000269735
0.0178536
0.000255842
0.0176728
0.000242762
0.0175011
0.000230425
0.017338
0.000218768
0.0171831
0.000207736
0.017036
0.000197277
0.0168962
0.000187345
0.0167634
0.000177896
0.0166373
0.000168893
0.0165176
0.000160298
0.0164039
0.00015208
0.0162961
0.000144207
0.0161939
0.000136651
0.0160971
0.000129385
0.0160055
0.000122385
0.0159189
0.000115627
0.0158372
0.000109089
0.0157601
0.000102751
0.0156876
9.65905e-05
0.0156196
9.05897e-05
0.0155559
8.47292e-05
0.0154964
7.89904e-05
0.0154411
7.33551e-05
0.0153899
6.78048e-05
0.0153428
6.23212e-05
0.0152997
5.68852e-05
0.0152606
5.14775e-05
0.0152255
4.60778e-05
0.0151944
4.06644e-05
0.0151673
3.52144e-05
0.0151443
2.97025e-05
0.0151254
2.41012e-05
0.0151107
1.83796e-05
0.0151003
1.25029e-05
0.0150944
6.43108e-06
0.0150931
1.17802e-07
0.0150967
-6.49162e-06
0.0151054
-1.34625e-05
0.0151196
-2.0874e-05
0.0151395
-2.88237e-05
0.0151657
-3.7434e-05
0.0151989
-4.68621e-05
0.0152396
-5.73143e-05
0.015289
-6.90704e-05
0.0153481
-8.25236e-05
0.0154188
-9.82488e-05
0.0155031
-0.000117126
0.0156044
-0.000140565
0.0157275
-0.000170919
0.0158797
-0.000212268
0.0160728
-0.000271897
0.0163257
-0.000363086
0.0166687
-0.000510162
0.0171496
-0.000756979
0.0178405
-0.00118334
0.0188067
-0.0019424
-0.00325905
0.0197562
0.105142
0.00998551
0.10894
0.0222072
0.107707
0.0256524
0.103024
0.0245788
0.0967861
0.0217221
0.0902299
0.0184482
0.0840044
0.0154196
0.0783718
0.0128625
0.0733874
0.010785
0.0690137
0.00912019
0.0651802
0.00778822
0.0618109
0.00671684
0.0588361
0.00584744
0.0561957
0.00513467
0.053839
0.0045441
0.0517244
0.0040497
0.0498173
0.00363179
0.0480894
0.00327534
0.0465171
0.00296878
0.0450805
0.00270311
0.0437633
0.00247129
0.0425515
0.0022677
0.0414332
0.00208786
0.0403983
0.00192815
0.0394382
0.0017856
0.0385453
0.0016578
0.0377131
0.00154272
0.036936
0.00143869
0.0362089
0.00134431
0.0355275
0.00125838
0.0348878
0.0011799
0.0342866
0.001108
0.0337206
0.00104194
0.0331871
0.000981097
0.0326838
0.000924904
0.0322084
0.000872883
0.031759
0.000824615
0.0313337
0.000779731
0.0309309
0.000737905
0.0305491
0.000698852
0.0301871
0.000662317
0.0298435
0.000628074
0.0295173
0.00059592
0.0292075
0.000565674
0.0289131
0.000537175
0.0286332
0.000510276
0.0283671
0.000484844
0.0281141
0.000460759
0.0278735
0.000437914
0.0276446
0.000416208
0.027427
0.00039555
0.02722
0.000375858
0.0270232
0.000357055
0.0268363
0.000339069
0.0266586
0.000321836
0.02649
0.000305295
0.02633
0.000289389
0.0261783
0.000274064
0.0260347
0.00025927
0.0258988
0.000244959
0.0257704
0.000231088
0.0256494
0.000217611
0.0255355
0.000204488
0.0254286
0.000191678
0.0253284
0.00017914
0.0252349
0.000166837
0.025148
0.000154729
0.0250676
0.000142776
0.0249935
0.000130939
0.0249258
0.000119176
0.0248644
0.000107445
0.0248094
9.56994e-05
0.0247607
8.38914e-05
0.0247185
7.19682e-05
0.0246827
5.98722e-05
0.0246535
4.75392e-05
0.0246311
3.48968e-05
0.0246157
2.18622e-05
0.0246075
8.3396e-06
0.0246068
-5.78365e-06
0.024614
-2.06418e-05
0.0246295
-3.63973e-05
0.0246539
-5.32499e-05
0.0246879
-7.14497e-05
0.0247324
-9.13159e-05
0.0247883
-0.000113266
0.0248571
-0.000137859
0.0249405
-0.000165869
0.0250406
-0.0001984
0.0251606
-0.00023708
0.0253044
-0.000284396
0.0254777
-0.000344261
0.0256885
-0.000422984
0.0259475
-0.000530904
0.0262695
-0.000685074
0.0266726
-0.000913304
0.0271751
-0.00125947
0.0277808
-0.00178909
0.0284263
-0.00258787
-0.00370566
0.0288729
0.103312
0.00667342
0.108501
0.0170181
0.111574
0.0225794
0.111772
0.0243811
0.109657
0.0238373
0.106065
0.0220403
0.101731
0.0197532
0.0971668
0.0174267
0.092676
0.0152758
0.0884173
0.0133789
0.08446
0.0117455
0.0808225
0.0103543
0.0774964
0.00917351
0.0744609
0.00817021
0.0716903
0.00731473
0.0691583
0.00658171
0.0668399
0.00595014
0.0647124
0.00540284
0.0627554
0.00492583
0.0609507
0.00450775
0.0592826
0.00413938
0.0577372
0.00381315
0.0563022
0.00352286
0.0549669
0.00326339
0.053722
0.0030305
0.0525592
0.00282062
0.0514712
0.00263078
0.0504514
0.00245848
0.0494941
0.00230157
0.0485942
0.00215823
0.0477472
0.00202692
0.0469489
0.00190629
0.0461957
0.00179518
0.0454842
0.00169259
0.0448115
0.00159763
0.0441748
0.00150956
0.0435717
0.00142768
0.0430001
0.00135141
0.0424577
0.00128023
0.0419429
0.00121366
0.0414539
0.0011513
0.0409892
0.00109278
0.0405474
0.00103776
0.0401271
0.00098595
0.0397272
0.00093708
0.0393466
0.000890909
0.0389842
0.000847218
0.0386392
0.000805808
0.0383106
0.000766498
0.0379977
0.000729123
0.0376997
0.000693531
0.0374159
0.000659584
0.0371458
0.000627153
0.0368888
0.000596119
0.0366443
0.000566373
0.0364117
0.000537812
0.0361908
0.00051034
0.035981
0.000483869
0.0357819
0.000458313
0.0355933
0.000433592
0.0354148
0.00040963
0.035246
0.000386354
0.0350868
0.000363694
0.0349369
0.000341581
0.0347961
0.000319949
0.0346642
0.000298731
0.0345411
0.000277863
0.0344266
0.000257277
0.0343206
0.000236908
0.0342231
0.000216687
0.034134
0.000196541
0.0340533
0.000176395
0.033981
0.00015617
0.0339172
0.000135778
0.033862
0.000115125
0.0338154
9.41062e-05
0.0337777
7.26023e-05
0.0337491
5.04795e-05
0.0337298
2.75824e-05
0.0337203
3.72947e-06
0.033721
-2.12946e-05
0.0337323
-4.77494e-05
0.033755
-7.59522e-05
0.0337899
-0.000106297
0.0338378
-0.000139285
0.0339001
-0.00017556
0.0339782
-0.000215976
0.0340741
-0.000261686
0.03419
-0.000314292
0.034329
-0.000376075
0.0344949
-0.000450359
0.0346927
-0.000542094
0.0349285
-0.000658753
0.0352093
-0.000811679
0.0355422
-0.00101797
0.0359316
-0.00130268
0.0363725
-0.00170043
0.0368371
-0.00225363
0.0372492
-0.00299997
-0.00392951
0.037473
0.102077
0.00459595
0.106348
0.012748
0.110418
0.0185087
0.113046
0.0217535
0.113912
0.0229715
0.113196
0.0227559
0.111292
0.0216572
0.108612
0.0201068
0.105494
0.0183937
0.102184
0.0166895
0.0988436
0.0150854
0.095576
0.0136219
0.0924392
0.0123103
0.0894634
0.011146
0.0866609
0.0101172
0.0840331
0.00920952
0.0815751
0.00840817
0.0792785
0.00769939
0.0771335
0.00707087
0.0751294
0.0065118
0.0732559
0.00601288
0.0715029
0.00556613
0.069861
0.00516475
0.0683215
0.00480292
0.0668763
0.00447569
0.0655181
0.00417882
0.0642402
0.00390869
0.0630365
0.00366218
0.0619015
0.00343659
0.0608301
0.00322962
0.0598178
0.00303924
0.0588604
0.0028637
0.0579541
0.00270147
0.0570955
0.00255122
0.0562813
0.00241176
0.0555088
0.00228205
0.0547753
0.00216119
0.0540784
0.00204835
0.0534158
0.00194281
0.0527855
0.00184393
0.0521857
0.00175113
0.0516146
0.00166389
0.0510706
0.00158175
0.0505523
0.00150428
0.0500582
0.00143111
0.0495872
0.00136189
0.0491381
0.00129632
0.0487099
0.0012341
0.0483014
0.00117497
0.0479118
0.0011187
0.0475403
0.00106507
0.047186
0.00101388
0.0468482
0.000964941
0.0465262
0.000918079
0.0462195
0.000873136
0.0459273
0.000829962
0.0456492
0.000788418
0.0453847
0.000748373
0.0451333
0.000709701
0.0448946
0.000672287
0.0446682
0.000636018
0.0444538
0.000600787
0.044251
0.00056649
0.0440596
0.000533027
0.0438792
0.0005003
0.0437097
0.000468212
0.0435509
0.000436668
0.0434026
0.000405569
0.0432647
0.00037482
0.0431371
0.000344318
0.0430197
0.000313961
0.0429124
0.000283638
0.0428154
0.000253234
0.0427285
0.000222624
0.042652
0.000191672
0.0425859
0.000160227
0.0425303
0.000128121
0.0424857
9.51642e-05
0.0424521
6.11376e-05
0.04243
2.57869e-05
0.0424199
-1.11879e-05
0.0424223
-5.01454e-05
0.0424379
-9.15206e-05
0.0424674
-0.00013585
0.042512
-0.000183803
0.0425726
-0.000236235
0.0426509
-0.000294254
0.0427486
-0.000359322
0.0428677
-0.000433412
0.0430108
-0.000519231
0.043181
-0.000620556
0.0433817
-0.000742719
0.0436162
-0.000893291
0.0438875
-0.00108297
0.0441961
-0.00132659
0.0445373
-0.00164382
0.0448953
-0.00205851
0.0452362
-0.00259453
0.0455002
-0.00326397
-0.00404165
0.0456124
0.101292
0.00330376
0.104405
0.0096352
0.108104
0.0148095
0.111405
0.0184525
0.113752
0.0206248
0.114946
0.0215617
0.115041
0.0215627
0.114221
0.020926
0.112714
0.0199015
0.110728
0.0186749
0.10844
0.0173737
0.105983
0.016079
0.103455
0.0148385
0.100924
0.0136772
0.0984348
0.0126059
0.0960181
0.0116263
0.0936909
0.0107353
0.091463
0.00992722
0.0893388
0.00919508
0.0873189
0.00853176
0.0854014
0.0079303
0.0835834
0.00738422
0.0818605
0.00688759
0.0802284
0.00643507
0.0786821
0.00602192
0.077217
0.00564391
0.0758284
0.00529732
0.0745117
0.00497887
0.0732627
0.00468565
0.0720772
0.00441511
0.0709514
0.00416499
0.0698818
0.00393329
0.068865
0.00371825
0.067898
0.00351829
0.0669777
0.00333204
0.0661015
0.00315823
0.0652669
0.00299577
0.0644716
0.00284367
0.0637134
0.00270103
0.0629903
0.00256706
0.0623004
0.00244103
0.061642
0.00232231
0.0610134
0.00221029
0.0604132
0.00210446
0.05984
0.00200432
0.0592925
0.00190944
0.0587694
0.00181941
0.0582696
0.00173387
0.0577921
0.00165248
0.0573359
0.00157492
0.0569
0.00150092
0.0564837
0.00143021
0.0560861
0.00136254
0.0557065
0.00129769
0.0553442
0.00123545
0.0549985
0.00117561
0.054669
0.00111799
0.0543549
0.00106243
0.0540559
0.00100874
0.0537714
0.000956781
0.053501
0.000906396
0.0532443
0.000857443
0.0530011
0.000809783
0.0527708
0.000763281
0.0525533
0.000717807
0.0523483
0.00067323
0.0521555
0.000629421
0.0519748
0.000586251
0.0518061
0.000543588
0.0516491
0.0005013
0.0515038
0.000459247
0.0513702
0.000417284
0.0512481
0.000375257
0.0511378
0.000333002
0.0510391
0.000290339
0.0509522
0.000247073
0.0508774
0.000202984
0.0508147
0.000157827
0.0507645
0.00011132
0.0507272
6.31385e-05
0.0507031
1.29023e-05
0.0506928
-3.98389e-05
0.0506969
-9.56263e-05
0.0507162
-0.000155118
0.0507515
-0.000219128
0.0508039
-0.000288674
0.0508747
-0.000365048
0.0509653
-0.000449917
0.0510774
-0.000545459
0.0512127
-0.000654558
0.0513732
-0.000781064
0.0515606
-0.000930148
0.0517761
-0.00110873
0.0520191
-0.00132596
0.052286
-0.00159354
0.0525677
-0.00192554
0.0528461
-0.00233693
0.0530911
-0.00283947
0.0532605
-0.00343338
-0.00409372
0.0533126
0.100819
0.00248523
0.103016
0.00743812
0.105987
0.0118379
0.109099
0.0153403
0.111866
0.0178582
0.113985
0.0194431
0.115326
0.0202217
0.115892
0.0203596
0.115767
0.020026
0.115072
0.0193704
0.113932
0.0185135
0.112465
0.0175465
0.110769
0.0165343
0.108925
0.0155214
0.106994
0.014536
0.105026
0.0135952
0.103053
0.0127083
0.101101
0.0118792
0.0991874
0.0111084
0.0973248
0.0103944
0.0955207
0.0097344
0.0937799
0.00912505
0.0921049
0.00856264
0.0904965
0.00804347
0.0889544
0.00756393
0.0874777
0.00712062
0.0860647
0.00671038
0.0847133
0.00633026
0.0834213
0.00597762
0.0821864
0.00565
0.0810062
0.00534522
0.0798782
0.00506126
0.0788001
0.00479634
0.0777696
0.00454882
0.0767844
0.00431723
0.0758424
0.00410024
0.0749415
0.00389664
0.0740798
0.00370535
0.0732555
0.00352537
0.0724667
0.00335582
0.0717119
0.00319587
0.0709894
0.00304479
0.0702978
0.0029019
0.0696357
0.00276658
0.0690017
0.00263827
0.0683947
0.00251645
0.0678135
0.00240064
0.067257
0.0022904
0.0667241
0.00218534
0.0662139
0.00208508
0.0657256
0.00198928
0.0652582
0.00189761
0.0648109
0.00180978
0.0643831
0.00172551
0.063974
0.00164454
0.063583
0.00156662
0.0632095
0.00149154
0.0628528
0.00141906
0.0625126
0.001349
0.0621882
0.00128114
0.0618793
0.00121531
0.0615854
0.00115132
0.0613062
0.001089
0.0610413
0.00102818
0.0607904
0.000968704
0.0605532
0.0009104
0.0603296
0.000853108
0.0601191
0.000796666
0.0599218
0.00074091
0.0597375
0.000685671
0.0595659
0.000630778
0.0594072
0.000576048
0.0592611
0.00052129
0.0591278
0.000466302
0.0590073
0.000410862
0.0588996
0.00035473
0.058805
0.000297638
0.0587235
0.000239289
0.0586555
0.000179343
0.0586012
0.000117413
0.0585611
5.30496e-05
0.0585355
-1.42761e-05
0.0585251
-8.51909e-05
0.0585304
-0.000160448
0.0585522
-0.000240962
0.0585914
-0.000327859
0.0586489
-0.000422538
0.0587258
-0.000526754
0.058823
-0.000642735
0.0589418
-0.000773323
0.0590829
-0.000922159
0.0592466
-0.0010939
0.0594323
-0.00129443
0.0596374
-0.00153104
0.0598562
-0.00181235
0.0600784
-0.00214774
0.0602874
-0.00254584
0.0604592
-0.00301129
0.0605653
-0.00353956
-0.00411018
0.0605818
0.100541
0.0019444
0.102093
0.00588603
0.10437
0.00956131
0.106997
0.0127124
0.109631
0.0152247
0.111999
0.0170756
0.11392
0.0183
0.115307
0.0189733
0.116141
0.0191919
0.116456
0.0190554
0.116313
0.0186561
0.115786
0.0180733
0.11495
0.0173709
0.113872
0.0165988
0.112614
0.0157939
0.111227
0.0149829
0.109751
0.014184
0.108221
0.0134095
0.106662
0.012667
0.105095
0.0119609
0.103537
0.0112933
0.101997
0.0106644
0.100486
0.0100739
0.0990093
0.00952017
0.0975715
0.0090017
0.0961757
0.00851647
0.0948236
0.00806246
0.0935162
0.00763759
0.092254
0.00723985
0.0910367
0.00686732
0.0898638
0.00651815
0.0887344
0.00619063
0.0876476
0.00588314
0.0866022
0.00559418
0.0855971
0.00532239
0.0846308
0.00506648
0.0837022
0.00482528
0.0828098
0.0045977
0.0819525
0.00438275
0.0811288
0.0041795
0.0803375
0.00398712
0.0795775
0.00380482
0.0788475
0.00363189
0.0781464
0.00346767
0.0774731
0.00331155
0.0768266
0.00316296
0.0762059
0.00302139
0.0756099
0.00288634
0.0750379
0.00275737
0.0744889
0.00263406
0.0739622
0.00251602
0.0734569
0.00240289
0.0729723
0.00229433
0.0725078
0.00219002
0.0720627
0.00208966
0.0716363
0.00199297
0.0712282
0.00189969
0.0708377
0.00180955
0.0704644
0.00172233
0.0701077
0.00163779
0.0697673
0.00155571
0.0694428
0.00147587
0.0691337
0.00139808
0.0688397
0.00132214
0.0685606
0.00124784
0.068296
0.00117499
0.0680457
0.0011034
0.0678095
0.00103288
0.0675872
0.000963232
0.0673786
0.000894252
0.0671836
0.000825737
0.0670022
0.000757471
0.0668342
0.00068923
0.0666798
0.000620772
0.0665388
0.000551839
0.0664114
0.00048215
0.0662976
0.000411394
0.0661977
0.000339229
0.0661118
0.000265265
0.0660401
0.000189063
0.065983
0.000110117
0.0659409
2.78389e-05
0.0659142
-5.84589e-05
0.0659033
-0.000149592
0.0659089
-0.000246536
0.0659315
-0.000350465
0.0659718
-0.000462809
0.0660304
-0.000585314
0.0661078
-0.000720131
0.0662043
-0.000869906
0.0663201
-0.00103789
0.0664542
-0.00122806
0.066605
-0.00144515
0.0667686
-0.00169468
0.0669389
-0.00198264
0.067106
-0.0023149
0.0672561
-0.00269588
0.0673712
-0.00312637
0.0674321
-0.00360048
-0.00410238
0.0674243
0.100374
0.00157006
0.101489
0.00477115
0.103211
0.00783984
0.105327
0.0105958
0.107614
0.0129377
0.109868
0.0148216
0.111926
0.0162424
0.113673
0.0172259
0.115046
0.0178192
0.116021
0.0180802
0.116607
0.01807
0.116833
0.017847
0.11674
0.0174639
0.116374
0.0169653
0.11578
0.0163884
0.115
0.0157623
0.114074
0.0151099
0.113035
0.0144482
0.111913
0.0137898
0.11073
0.0131438
0.109507
0.0125163
0.10826
0.0119114
0.107002
0.0113315
0.105744
0.0107781
0.104494
0.0102515
0.103259
0.00975159
0.102044
0.0092778
0.100852
0.00882928
0.0996871
0.00840498
0.0985506
0.00800376
0.0974444
0.00762443
0.0963692
0.00726577
0.0953258
0.00692659
0.0943142
0.00660571
0.0933346
0.00630201
0.0923867
0.00601442
0.09147
0.00574192
0.0905842
0.00548353
0.0897286
0.00523836
0.0889025
0.00500555
0.0881053
0.00478431
0.0873363
0.00457388
0.0865946
0.00437357
0.0858795
0.00418272
0.0851904
0.00400073
0.0845263
0.00382702
0.0838867
0.00366105
0.0832707
0.00350234
0.0826776
0.00335041
0.0821069
0.00320481
0.0815577
0.00306515
0.0810296
0.00293103
0.0805218
0.00280209
0.0800339
0.00267798
0.0795651
0.00255838
0.0791151
0.00244298
0.0786833
0.00233148
0.0782693
0.00222361
0.0778725
0.00211909
0.0774926
0.00201768
0.0771292
0.00191912
0.0767819
0.00182318
0.0764504
0.00172963
0.0761343
0.00163823
0.0758334
0.00154876
0.0755473
0.00146101
0.075276
0.00137475
0.0750191
0.00128976
0.0747765
0.00120582
0.0745481
0.0011227
0.0743337
0.00104016
0.0741332
0.000957961
0.0739466
0.000875847
0.0737738
0.000793543
0.0736149
0.000710759
0.0734698
0.000627177
0.0733388
0.000542453
0.0732218
0.000456204
0.0731191
0.000368004
0.0730308
0.000277373
0.0729571
0.000183766
0.0728984
8.65543e-05
0.0728549
-1.49859e-05
0.072827
-0.000121701
0.0728151
-0.000234584
0.0728194
-0.00035481
0.0728404
-0.000483776
0.0728782
-0.000623143
0.072933
-0.000774898
0.0730045
-0.000941398
0.073092
-0.00112543
0.0731942
-0.00133023
0.0733085
-0.00155948
0.073431
-0.00181713
0.0735555
-0.00210716
0.0736735
-0.00243295
0.073774
-0.00279634
0.0738438
-0.00319615
0.0738698
-0.00362655
-0.00407554
0.073843
0.10027
0.00129983
0.10109
0.00395109
0.102398
0.00653258
0.104073
0.00892032
0.105976
0.0110345
0.107967
0.012831
0.109918
0.0142911
0.111727
0.0154172
0.113318
0.0162285
0.114643
0.016755
0.11568
0.0170332
0.116425
0.0171017
0.11689
0.0169984
0.117097
0.0167586
0.117072
0.0164137
0.116843
0.0159908
0.116441
0.0155123
0.115892
0.0149969
0.115223
0.0144592
0.114456
0.0139109
0.113611
0.0133609
0.112706
0.0128159
0.111757
0.0122809
0.110776
0.0117596
0.109773
0.0112543
0.108758
0.0107667
0.107738
0.0102977
0.106719
0.00984787
0.105707
0.00941719
0.104705
0.00900548
0.103717
0.00861235
0.102746
0.00823726
0.101793
0.00787956
0.10086
0.00753856
0.0999486
0.00721353
0.0990594
0.0069037
0.0981929
0.00660834
0.0973498
0.0063267
0.0965301
0.00605805
0.0957339
0.00580169
0.0949613
0.00555694
0.094212
0.00532316
0.0934859
0.00509973
0.0927825
0.00488604
0.0921017
0.00468155
0.091443
0.00448571
0.090806
0.00429802
0.0901904
0.004118
0.0895956
0.00394519
0.0890212
0.00377916
0.0884669
0.0036195
0.0879321
0.00346582
0.0874165
0.00331775
0.0869195
0.00317493
0.0864408
0.00303704
0.0859801
0.00290374
0.0855368
0.00277474
0.0851107
0.00264974
0.0847013
0.00252845
0.0843084
0.0024106
0.0839316
0.00229593
0.0835706
0.00218417
0.0832252
0.00207509
0.082895
0.00196842
0.0825798
0.00186393
0.0822794
0.00176137
0.0819937
0.00166051
0.0817223
0.00156109
0.0814653
0.00146288
0.0812224
0.00136562
0.0809935
0.00126905
0.0807785
0.0011729
0.0805775
0.0010769
0.0803903
0.000980732
0.080217
0.000884092
0.0800575
0.000786633
0.079912
0.00068798
0.0797805
0.000587725
0.079663
0.000485414
0.0795599
0.00038054
0.0794711
0.000272533
0.0793969
0.000160746
0.0793375
4.44426e-05
0.079293
-7.72258e-05
0.0792637
-0.000205238
0.0792496
-0.000340726
0.0792508
-0.000485008
0.0792673
-0.000639612
0.0792987
-0.000806306
0.0793444
-0.000987122
0.0794034
-0.00118436
0.0794737
-0.00140058
0.0795527
-0.00163851
0.0796365
-0.00190089
0.0797195
-0.00219019
0.0797947
-0.00250814
0.0798534
-0.00285502
0.0798861
-0.00322881
0.0798838
-0.00362424
-0.00403221
0.0798404
0.100202
0.00109752
0.100821
0.00333221
0.101827
0.00552697
0.103151
0.00759579
0.104708
0.00947831
0.106402
0.0111366
0.108143
0.0125496
0.10985
0.0137106
0.111454
0.0146246
0.112903
0.0153058
0.114162
0.0157742
0.115211
0.0160533
0.116041
0.0161683
0.116655
0.0161446
0.117062
0.0160062
0.117278
0.0157751
0.117319
0.015471
0.117205
0.0151109
0.116955
0.0147095
0.116587
0.014279
0.116118
0.0138294
0.115565
0.0133687
0.114943
0.0129036
0.114263
0.0124392
0.113538
0.0119794
0.112777
0.0115274
0.11199
0.0110852
0.111183
0.0106547
0.110363
0.0102369
0.109536
0.00983262
0.108706
0.00944221
0.107877
0.00906589
0.107053
0.00870364
0.106237
0.0083553
0.10543
0.00802062
0.104634
0.00769923
0.103852
0.00739074
0.103084
0.0070947
0.102331
0.00681064
0.101595
0.00653807
0.100875
0.0062765
0.100173
0.00602544
0.0994881
0.00578439
0.0988213
0.00555288
0.0981724
0.00533043
0.0975415
0.00511659
0.0969286
0.00491092
0.0963336
0.00471299
0.0957564
0.00452239
0.0951969
0.00433871
0.0946548
0.00416158
0.09413
0.00399064
0.0936222
0.00382551
0.0931313
0.00366587
0.0926569
0.00351139
0.0921989
0.00336174
0.091757
0.00321663
0.091331
0.00307576
0.0909206
0.00293883
0.0905257
0.00280557
0.0901459
0.00267571
0.0897811
0.00254899
0.089431
0.00242513
0.0890956
0.00230388
0.0887745
0.00218498
0.0884677
0.00206818
0.088175
0.00195323
0.0878962
0.00183985
0.0876313
0.0017278
0.0873801
0.0016168
0.0871426
0.00150657
0.0869187
0.00139683
0.0867083
0.00128728
0.0865114
0.0011776
0.0863281
0.00106744
0.0861582
0.000956459
0.086002
0.000844251
0.0858593
0.000730392
0.0857303
0.000614413
0.085615
0.000495793
0.0855136
0.000373955
0.0854261
0.00024825
0.0853526
0.000117947
0.0852932
-1.77771e-05
0.0852478
-0.000159861
0.0852164
-0.000309366
0.0851989
-0.000467499
0.0851949
-0.000635625
0.0852039
-0.000815275
0.0852249
-0.00100815
0.0852567
-0.0012161
0.0852971
-0.00144107
0.0853437
-0.00168502
0.0853926
-0.00194977
0.0854391
-0.00223673
0.0854775
-0.00254653
0.0855011
-0.00287862
0.0855029
-0.00323067
0.0854768
-0.00359813
-0.00397403
0.0854186
0.100156
0.000941347
0.100635
0.00285344
0.101422
0.00474041
0.102476
0.00654125
0.103744
0.0082106
0.105163
0.00971761
0.106669
0.0110429
0.108203
0.012177
0.109709
0.0131188
0.111141
0.0138739
0.112462
0.0144528
0.113646
0.0148691
0.114676
0.0151389
0.115541
0.015279
0.116241
0.0153067
0.116778
0.0152385
0.117158
0.0150902
0.117393
0.0148761
0.117494
0.0146089
0.117473
0.0142999
0.117343
0.013959
0.117118
0.0135945
0.116808
0.0132134
0.116425
0.0128216
0.115981
0.012424
0.115484
0.0120244
0.114943
0.0116261
0.114366
0.0112317
0.11376
0.010843
0.113131
0.0104617
0.112484
0.0100889
0.111825
0.00972538
0.111156
0.00937182
0.110483
0.00902856
0.109808
0.00869582
0.109133
0.00837368
0.108462
0.00806212
0.107796
0.007761
0.107136
0.00747017
0.106485
0.00718938
0.105843
0.00691837
0.105212
0.00665684
0.104592
0.00640447
0.103984
0.00616093
0.103388
0.00592587
0.102806
0.00569897
0.102237
0.00547985
0.101682
0.0052682
0.10114
0.00506365
0.100613
0.00486588
0.1001
0.00467455
0.0996015
0.00448934
0.0991171
0.00430994
0.0986469
0.00413603
0.098191
0.00396731
0.0977493
0.00380348
0.0973216
0.00364425
0.0969081
0.00348934
0.0965084
0.00333848
0.0961226
0.00319138
0.0957505
0.00304778
0.0953921
0.00290742
0.0950472
0.00277003
0.0947157
0.00263534
0.0943976
0.00250311
0.0940927
0.00237307
0.093801
0.00224495
0.0935223
0.00211849
0.0932567
0.00199342
0.0930041
0.00186945
0.0927643
0.00174631
0.0925375
0.00162369
0.0923235
0.00150128
0.0921223
0.00137875
0.091934
0.00125575
0.0917586
0.00113191
0.091596
0.00100683
0.0914463
0.000880073
0.0913095
0.00075116
0.0911858
0.000619575
0.091075
0.000484744
0.0909772
0.000346032
0.0908924
0.000202736
0.0908206
5.40685e-05
0.0907615
-0.000100843
0.0907151
-0.000262974
0.0906811
-0.000433401
0.0906587
-0.000613316
0.0906475
-0.000804012
0.0906462
-0.00100688
0.0906535
-0.00122336
0.0906673
-0.0014549
0.0906851
-0.00170285
0.0907037
-0.00196834
0.090719
-0.00225205
0.0907264
-0.00255395
0.0907209
-0.00287304
0.0906972
-0.00320701
0.090651
-0.00355198
-0.00390253
0.0905795
0.100124
0.000817649
0.100503
0.00247458
0.101129
0.00411417
0.101978
0.00569203
0.103015
0.00717373
0.104198
0.00853454
0.105483
0.00975773
0.106826
0.0108337
0.108186
0.0117591
0.109525
0.0125352
0.11081
0.0131672
0.112017
0.013663
0.113123
0.0140325
0.114115
0.0142867
0.114985
0.0144374
0.115726
0.0144967
0.116341
0.0144761
0.11683
0.014387
0.117199
0.0142397
0.117455
0.0140439
0.117606
0.0138082
0.11766
0.0135404
0.117626
0.0132472
0.117513
0.0129345
0.11733
0.0126075
0.117084
0.0122703
0.116783
0.0119268
0.116435
0.0115799
0.116046
0.0112322
0.115621
0.0108858
0.115168
0.0105424
0.11469
0.0102033
0.114192
0.00986972
0.113678
0.0095424
0.113152
0.00922203
0.112617
0.00890907
0.112075
0.00860386
0.111529
0.0083066
0.110982
0.00801741
0.110435
0.00773634
0.10989
0.00746333
0.109349
0.00719832
0.108812
0.00694118
0.108281
0.00669173
0.107757
0.0064498
0.107241
0.00621516
0.106733
0.0059876
0.106235
0.00576687
0.105746
0.00555272
0.105266
0.00534489
0.104798
0.00514314
0.10434
0.00494719
0.103893
0.00475678
0.103458
0.00457165
0.103033
0.00439153
0.102621
0.00421617
0.10222
0.00404531
0.10183
0.00387868
0.101453
0.00371603
0.101087
0.00355711
0.100733
0.00340166
0.100391
0.00324942
0.100061
0.00310015
0.0997428
0.00295359
0.0994364
0.00280948
0.0991419
0.00266757
0.0988593
0.00252759
0.0985885
0.00238927
0.0983295
0.00225235
0.0980825
0.00211654
0.0978472
0.00198155
0.0976238
0.00184708
0.0974123
0.00171282
0.0972126
0.00157842
0.0970248
0.00144354
0.0968489
0.00130781
0.0966849
0.00117081
0.0965329
0.00103212
0.0963928
0.000891268
0.0962646
0.000747744
0.0961484
0.000600991
0.096044
0.000450402
0.0959514
0.00029531
0.0958705
0.000134985
0.095801
-3.13747e-05
0.0957427
-0.000204641
0.0956951
-0.000385761
0.0956575
-0.000575748
0.0956292
-0.000775676
0.0956089
-0.00098665
0.0955954
-0.00120977
0.0955865
-0.00144608
0.0955802
-0.00169647
0.0955734
-0.00196155
0.0955628
-0.00224152
0.0955449
-0.00253598
0.0955155
-0.00284372
0.0954711
-0.00316258
0.0954084
-0.00348928
-0.00381955
0.0953254
0.1001
0.000717562
0.100406
0.00216868
0.100913
0.00360693
0.101606
0.00499912
0.102461
0.0063187
0.10345
0.00754578
0.104541
0.00866624
0.105704
0.00967122
0.106906
0.0105565
0.10812
0.0113216
0.109318
0.011969
0.110478
0.012503
0.111581
0.01293
0.11261
0.0132571
0.113555
0.0134924
0.114408
0.0136442
0.115163
0.0137212
0.115818
0.0137317
0.116374
0.0136838
0.116832
0.0135853
0.117197
0.0134434
0.117473
0.0132647
0.117665
0.0130553
0.117779
0.0128205
0.117821
0.0125652
0.117798
0.0122936
0.117715
0.0120096
0.117579
0.0117162
0.117395
0.0114164
0.117168
0.0111125
0.116904
0.0108066
0.116607
0.0105003
0.116281
0.0101952
0.115931
0.00989229
0.115561
0.0095927
0.115172
0.00929719
0.11477
0.00900638
0.114356
0.00872079
0.113932
0.00844078
0.113502
0.00816664
0.113067
0.00789857
0.112629
0.00763668
0.112189
0.00738104
0.111749
0.00713165
0.11131
0.00688849
0.110874
0.00665148
0.110441
0.00642053
0.110012
0.00619551
0.109589
0.00597627
0.109171
0.00576265
0.108759
0.00555448
0.108355
0.00535156
0.107958
0.00515371
0.107569
0.00496071
0.107188
0.00477236
0.106816
0.00458844
0.106453
0.00440874
0.106098
0.00423303
0.105753
0.00406109
0.105418
0.00389269
0.105092
0.00372759
0.104776
0.00356558
0.104469
0.00340641
0.104173
0.00324984
0.103887
0.00309563
0.103611
0.00294353
0.103345
0.00279329
0.10309
0.00264465
0.102845
0.00249734
0.10261
0.00235109
0.102386
0.00220561
0.102173
0.0020606
0.10197
0.00191575
0.101777
0.00177073
0.101596
0.00162519
0.101425
0.00147876
0.101265
0.00133104
0.101115
0.00118162
0.100976
0.00103004
0.100848
0.000875806
0.100731
0.000718395
0.100624
0.000557232
0.100528
0.0003917
0.100442
0.000221129
0.100365
4.48012e-05
0.100299
-0.000138052
0.100241
-0.000328246
0.100192
-0.00052663
0.100151
-0.000734073
0.100115