/*--------------------------------*- C++ -*----------------------------------*\
| =========                 |                                                 |
| \\      /  F ield         | OpenFOAM: The Open Source CFD Toolbox           |
|  \\    /   O peration     | Version:  2406                                  |
|   \\  /    A nd           | Website:  www.openfoam.com                      |
|    \\/     M anipulation  |                                                 |
\*---------------------------------------------------------------------------*/
FoamFile
{
    version     2.0;
    format      ascii;
    arch        "LSB;label=32;scalar=64";
    class       volVectorField;
    location    "450";
    object      U;
}
// * * * * * * * * * * * * * * * * * * * * * * * * * * * * * * * * * * * * * //

dimensions      [0 1 -1 0 0 0 0];

internalField   nonuniform List<vector> 
150000
(
(7.94097 0.953545 0)
(6.6975 1.02915 0)
(5.17751 0.578429 0)
(3.90219 0.294371 0)
(3.11149 0.166101 0)
(2.60343 0.0998769 0)
(2.24736 0.0624344 0)
(1.98825 0.0414167 0)
(1.79348 0.0293153 0)
(1.6416 0.0219102 0)
(1.51938 0.0170941 0)
(1.41855 0.0137925 0)
(1.33371 0.011421 0)
(1.26119 0.00964828 0)
(1.19836 0.00827935 0)
(1.14335 0.00719448 0)
(1.09474 0.0063166 0)
(1.05144 0.005594 0)
(1.01261 0.00499072 0)
(0.977589 0.00448097 0)
(0.945836 0.00404577 0)
(0.916913 0.00367084 0)
(0.890459 0.00334525 0)
(0.866174 0.00306046 0)
(0.843806 0.00280975 0)
(0.823141 0.00258776 0)
(0.803998 0.00239014 0)
(0.786221 0.00221335 0)
(0.769673 0.00205449 0)
(0.75424 0.00191114 0)
(0.739817 0.0017813 0)
(0.726316 0.00166325 0)
(0.713657 0.00155557 0)
(0.70177 0.00145704 0)
(0.690594 0.00136662 0)
(0.680073 0.00128339 0)
(0.670157 0.00120659 0)
(0.660803 0.00113554 0)
(0.651969 0.00106965 0)
(0.643621 0.0010084 0)
(0.635725 0.000951338 0)
(0.628252 0.000898064 0)
(0.621175 0.000848222 0)
(0.614469 0.000801495 0)
(0.608114 0.0007576 0)
(0.602087 0.000716285 0)
(0.59637 0.000677322 0)
(0.590947 0.000640507 0)
(0.585802 0.000605654 0)
(0.580921 0.000572595 0)
(0.576289 0.000541176 0)
(0.571896 0.000511258 0)
(0.567731 0.000482711 0)
(0.563782 0.000455417 0)
(0.560041 0.000429267 0)
(0.5565 0.000404159 0)
(0.55315 0.000379998 0)
(0.549984 0.000356694 0)
(0.546995 0.000334164 0)
(0.544179 0.000312328 0)
(0.541529 0.00029111 0)
(0.53904 0.000270436 0)
(0.536709 0.000250235 0)
(0.534532 0.000230438 0)
(0.532504 0.000210976 0)
(0.530625 0.00019178 0)
(0.52889 0.000172782 0)
(0.527299 0.000153911 0)
(0.525849 0.000135095 0)
(0.524541 0.000116257 0)
(0.523374 9.73173e-05 0)
(0.522348 7.81901e-05 0)
(0.521464 5.87823e-05 0)
(0.520724 3.89913e-05 0)
(0.52013 1.87036e-05 0)
(0.519685 -2.20899e-06 0)
(0.519392 -2.3892e-05 0)
(0.519258 -4.6513e-05 0)
(0.519287 -7.02683e-05 0)
(0.519488 -9.53894e-05 0)
(0.519869 -0.000122152 0)
(0.520441 -0.000150885 0)
(0.521219 -0.000181993 0)
(0.522218 -0.000215971 0)
(0.523458 -0.000253449 0)
(0.524965 -0.00029524 0)
(0.526769 -0.00034245 0)
(0.52891 -0.000396682 0)
(0.531443 -0.00046047 0)
(0.534438 -0.000538237 0)
(0.538 -0.000638447 0)
(0.542292 -0.000778445 0)
(0.547577 -0.000995463 0)
(0.554327 -0.00137353 0)
(0.563421 -0.00211323 0)
(0.576517 -0.00369066 0)
(0.596838 -0.00719213 0)
(0.632233 -0.0158968 0)
(0.70491 -0.046618 0)
(0.818678 -0.172354 0)
(10.2186 1.88712 0)
(10.3826 2.72493 0)
(9.6217 2.24106 0)
(8.49561 1.62032 0)
(7.47676 1.14055 0)
(6.64224 0.808012 0)
(5.96312 0.586467 0)
(5.41234 0.439616 0)
(4.9643 0.340482 0)
(4.59548 0.271579 0)
(4.28744 0.222116 0)
(4.0266 0.185473 0)
(3.80295 0.157541 0)
(3.60903 0.135711 0)
(3.43921 0.118282 0)
(3.28921 0.104111 0)
(3.1557 0.092409 0)
(3.03608 0.0826165 0)
(2.92828 0.074327 0)
(2.8306 0.0672388 0)
(2.7417 0.0611239 0)
(2.66044 0.0558067 0)
(2.58588 0.0511503 0)
(2.51724 0.0470465 0)
(2.45386 0.0434086 0)
(2.39517 0.0401667 0)
(2.34068 0.0372635 0)
(2.28997 0.0346522 0)
(2.24269 0.0322936 0)
(2.19851 0.0301551 0)
(2.15715 0.0282093 0)
(2.11837 0.026433 0)
(2.08196 0.0248063 0)
(2.04772 0.0233122 0)
(2.01549 0.0219362 0)
(1.9851 0.0206656 0)
(1.95642 0.0194894 0)
(1.92934 0.0183982 0)
(1.90373 0.0173833 0)
(1.8795 0.0164376 0)
(1.85655 0.0155544 0)
(1.83481 0.014728 0)
(1.8142 0.0139532 0)
(1.79464 0.0132255 0)
(1.77609 0.0125406 0)
(1.75847 0.011895 0)
(1.74175 0.0112853 0)
(1.72586 0.0107084 0)
(1.71077 0.0101618 0)
(1.69643 0.00964277 0)
(1.68281 0.0091492 0)
(1.66987 0.00867896 0)
(1.65759 0.00823016 0)
(1.64593 0.00780105 0)
(1.63486 0.00739 0)
(1.62437 0.00699549 0)
(1.61442 0.00661613 0)
(1.60501 0.00625059 0)
(1.5961 0.00589763 0)
(1.58769 0.00555608 0)
(1.57975 0.00522481 0)
(1.57227 0.00490276 0)
(1.56525 0.00458888 0)
(1.55867 0.00428217 0)
(1.55251 0.00398163 0)
(1.54677 0.00368629 0)
(1.54145 0.00339517 0)
(1.53654 0.00310727 0)
(1.53203 0.00282159 0)
(1.52792 0.00253707 0)
(1.52421 0.00225262 0)
(1.5209 0.00196707 0)
(1.51799 0.00167916 0)
(1.51548 0.00138754 0)
(1.51338 0.00109069 0)
(1.5117 0.000786935 0)
(1.51044 0.000474356 0)
(1.50963 0.000150765 0)
(1.50926 -0.000186392 0)
(1.50937 -0.000540125 0)
(1.50998 -0.000914035 0)
(1.51111 -0.00131249 0)
(1.51281 -0.00174086 0)
(1.5151 -0.00220592 0)
(1.51805 -0.00271633 0)
(1.52173 -0.00328353 0)
(1.52621 -0.00392311 0)
(1.5316 -0.00465725 0)
(1.53804 -0.00551907 0)
(1.54573 -0.00656086 0)
(1.55492 -0.00786996 0)
(1.566 -0.00960002 0)
(1.57955 -0.0120336 0)
(1.59648 -0.0157092 0)
(1.61823 -0.0216816 0)
(1.64713 -0.0320423 0)
(1.68695 -0.0508944 0)
(1.74431 -0.0863129 0)
(1.82848 -0.155266 0)
(1.92395 -0.291413 0)
(10.1768 1.34551 0)
(10.7882 2.53794 0)
(10.9413 2.66462 0)
(10.5996 2.36738 0)
(10.0102 1.96115 0)
(9.34905 1.57587 0)
(8.70066 1.25807 0)
(8.10416 1.01153 0)
(7.57303 0.824047 0)
(7.10639 0.681457 0)
(6.69775 0.57197 0)
(6.3393 0.486712 0)
(6.02362 0.419273 0)
(5.74415 0.365089 0)
(5.49538 0.320913 0)
(5.27272 0.284409 0)
(5.07239 0.253877 0)
(4.89126 0.228063 0)
(4.72677 0.206024 0)
(4.57676 0.187044 0)
(4.43944 0.170569 0)
(4.3133 0.156168 0)
(4.19706 0.143497 0)
(4.08963 0.132285 0)
(3.99008 0.122309 0)
(3.8976 0.113389 0)
(3.8115 0.105378 0)
(3.73116 0.0981526 0)
(3.65606 0.0916105 0)
(3.58574 0.0856656 0)
(3.51977 0.0802451 0)
(3.45781 0.075287 0)
(3.39952 0.0707386 0)
(3.34461 0.0665543 0)
(3.29283 0.0626947 0)
(3.24395 0.0591257 0)
(3.19775 0.0558177 0)
(3.15405 0.0527446 0)
(3.11269 0.0498836 0)
(3.07349 0.0472144 0)
(3.03634 0.0447193 0)
(3.00108 0.0423824 0)
(2.96762 0.0401896 0)
(2.93585 0.0381283 0)
(2.90566 0.0361871 0)
(2.87696 0.0343559 0)
(2.84969 0.0326254 0)
(2.82375 0.0309874 0)
(2.79908 0.0294342 0)
(2.77562 0.0279591 0)
(2.75331 0.0265557 0)
(2.73209 0.0252183 0)
(2.71191 0.0239415 0)
(2.69274 0.0227206 0)
(2.67452 0.0215509 0)
(2.65721 0.0204283 0)
(2.64079 0.0193489 0)
(2.62521 0.018309 0)
(2.61045 0.017305 0)
(2.59648 0.0163338 0)
(2.58328 0.0153923 0)
(2.57081 0.0144774 0)
(2.55907 0.0135863 0)
(2.54803 0.0127161 0)
(2.53768 0.0118642 0)
(2.528 0.0110278 0)
(2.51899 0.0102043 0)
(2.51062 0.00939084 0)
(2.5029 0.00858472 0)
(2.49581 0.00778306 0)
(2.48936 0.00698287 0)
(2.48354 0.00618098 0)
(2.47835 0.00537401 0)
(2.4738 0.00455827 0)
(2.4699 0.0037297 0)
(2.46665 0.0028838 0)
(2.46406 0.00201544 0)
(2.46217 0.00111879 0)
(2.46098 0.000187046 0)
(2.46052 -0.000787788 0)
(2.46084 -0.00181527 0)
(2.46196 -0.00290699 0)
(2.46394 -0.00407724 0)
(2.46685 -0.00534398 0)
(2.47075 -0.0067302 0)
(2.47574 -0.00826618 0)
(2.48194 -0.00999283 0)
(2.4895 -0.0119674 0)
(2.49861 -0.014273 0)
(2.50953 -0.0170351 0)
(2.52261 -0.0204509 0)
(2.53831 -0.0248417 0)
(2.55729 -0.0307468 0)
(2.58048 -0.0390919 0)
(2.60912 -0.0514863 0)
(2.64489 -0.0707171 0)
(2.68975 -0.101491 0)
(2.74551 -0.151464 0)
(2.81102 -0.232273 0)
(2.8697 -0.355379 0)
(10.0798 0.823394 0)
(10.5966 1.94649 0)
(11.0631 2.45326 0)
(11.2348 2.53054 0)
(11.1193 2.36871 0)
(10.8128 2.10344 0)
(10.4013 1.81887 0)
(9.94671 1.55622 0)
(9.48838 1.32965 0)
(9.04818 1.14022 0)
(8.63634 0.98391 0)
(8.25648 0.855282 0)
(7.90865 0.749106 0)
(7.59112 0.660922 0)
(7.30143 0.587121 0)
(7.03691 0.524852 0)
(6.79497 0.471885 0)
(6.5732 0.426476 0)
(6.36943 0.387259 0)
(6.18176 0.353154 0)
(6.00848 0.323304 0)
(5.84812 0.297022 0)
(5.69938 0.273756 0)
(5.56111 0.253052 0)
(5.43232 0.234542 0)
(5.31213 0.217921 0)
(5.19975 0.202935 0)
(5.09451 0.189371 0)
(4.99579 0.177052 0)
(4.90305 0.165824 0)
(4.81582 0.15556 0)
(4.73365 0.14615 0)
(4.65616 0.137497 0)
(4.583 0.129521 0)
(4.51386 0.122151 0)
(4.44845 0.115323 0)
(4.38652 0.108985 0)
(4.32784 0.103088 0)
(4.27218 0.0975898 0)
(4.21937 0.0924541 0)
(4.16922 0.0876475 0)
(4.12157 0.0831406 0)
(4.07628 0.0789072 0)
(4.0332 0.0749238 0)
(3.99222 0.0711692 0)
(3.95322 0.0676243 0)
(3.9161 0.064272 0)
(3.88075 0.0610965 0)
(3.84709 0.0580837 0)
(3.81503 0.0552206 0)
(3.7845 0.0524953 0)
(3.75543 0.049897 0)
(3.72776 0.0474156 0)
(3.70141 0.0450419 0)
(3.67635 0.0427673 0)
(3.65251 0.0405838 0)
(3.62984 0.038484 0)
(3.60832 0.0364609 0)
(3.58788 0.0345079 0)
(3.56851 0.0326189 0)
(3.55016 0.0307878 0)
(3.5328 0.0290091 0)
(3.51641 0.0272771 0)
(3.50096 0.0255867 0)
(3.48643 0.0239327 0)
(3.4728 0.0223099 0)
(3.46005 0.0207131 0)
(3.44817 0.0191374 0)
(3.43715 0.0175773 0)
(3.42698 0.0160277 0)
(3.41765 0.0144827 0)
(3.40916 0.0129367 0)
(3.40151 0.0113832 0)
(3.3947 0.00981534 0)
(3.38874 0.00822574 0)
(3.38365 0.00660605 0)
(3.37943 0.00494688 0)
(3.37611 0.00323754 0)
(3.37371 0.00146563 0)
(3.37226 -0.000383362 0)
(3.37181 -0.00232675 0)
(3.37239 -0.00438544 0)
(3.37408 -0.00658512 0)
(3.37693 -0.00895787 0)
(3.38105 -0.0115446 0)
(3.38653 -0.0143984 0)
(3.39351 -0.0175905 0)
(3.40215 -0.0212182 0)
(3.41268 -0.0254189 0)
(3.42534 -0.0303925 0)
(3.44048 -0.0364376 0)
(3.45854 -0.0440123 0)
(3.48005 -0.0538323 0)
(3.50569 -0.0670262 0)
(3.5362 -0.0853705 0)
(3.57224 -0.111603 0)
(3.61399 -0.149738 0)
(3.66027 -0.205123 0)
(3.7066 -0.283436 0)
(3.74108 -0.385597 0)
(10.0426 0.546315 0)
(10.395 1.45867 0)
(10.8535 2.05161 0)
(11.2147 2.33752 0)
(11.3915 2.39311 0)
(11.3903 2.30048 0)
(11.2487 2.12895 0)
(11.0102 1.92727 0)
(10.7131 1.7243 0)
(10.3866 1.53473 0)
(10.0508 1.3646 0)
(9.7185 1.21514 0)
(9.39719 1.08524 0)
(9.09105 0.972823 0)
(8.80196 0.875568 0)
(8.53048 0.791263 0)
(8.27635 0.717939 0)
(8.03884 0.653906 0)
(7.817 0.597736 0)
(7.6098 0.54824 0)
(7.41618 0.504427 0)
(7.23509 0.465473 0)
(7.06557 0.430692 0)
(6.9067 0.39951 0)
(6.75765 0.371448 0)
(6.61765 0.346101 0)
(6.48601 0.323127 0)
(6.36207 0.302235 0)
(6.24526 0.283178 0)
(6.13506 0.265744 0)
(6.03098 0.24975 0)
(5.93259 0.235038 0)
(5.8395 0.221472 0)
(5.75133 0.208933 0)
(5.66777 0.197316 0)
(5.58851 0.186531 0)
(5.51327 0.176497 0)
(5.44181 0.167143 0)
(5.37388 0.158407 0)
(5.30929 0.150232 0)
(5.24783 0.142569 0)
(5.18932 0.135373 0)
(5.1336 0.128604 0)
(5.08052 0.122227 0)
(5.02994 0.11621 0)
(4.98172 0.110522 0)
(4.93574 0.105137 0)
(4.89189 0.100032 0)
(4.85008 0.0951843 0)
(4.8102 0.0905736 0)
(4.77216 0.0861817 0)
(4.73589 0.0819916 0)
(4.7013 0.0779877 0)
(4.66833 0.0741556 0)
(4.63691 0.0704819 0)
(4.60698 0.066954 0)
(4.57848 0.0635603 0)
(4.55136 0.0602898 0)
(4.52558 0.0571322 0)
(4.50109 0.0540777 0)
(4.47784 0.051117 0)
(4.45581 0.0482412 0)
(4.43496 0.0454416 0)
(4.41525 0.0427099 0)
(4.39667 0.0400379 0)
(4.37918 0.0374177 0)
(4.36277 0.0348411 0)
(4.34742 0.0323002 0)
(4.33311 0.0297867 0)
(4.31984 0.0272923 0)
(4.30759 0.0248082 0)
(4.29635 0.0223254 0)
(4.28614 0.0198341 0)
(4.27694 0.0173237 0)
(4.26877 0.0147827 0)
(4.26163 0.0121986 0)
(4.25554 0.00955694 0)
(4.25053 0.00684161 0)
(4.24661 0.00403393 0)
(4.24382 0.00111211 0)
(4.2422 -0.00194964 0)
(4.2418 -0.0051823 0)
(4.24268 -0.00862366 0)
(4.24491 -0.0123206 0)
(4.24859 -0.016332 0)
(4.25381 -0.0207338 0)
(4.26072 -0.0256255 0)
(4.26947 -0.0311401 0)
(4.28025 -0.0374601 0)
(4.2933 -0.0448408 0)
(4.30889 -0.0536468 0)
(4.32734 -0.0644067 0)
(4.34901 -0.0778943 0)
(4.37424 -0.095241 0)
(4.40324 -0.118077 0)
(4.43591 -0.148662 0)
(4.47137 -0.189898 0)
(4.50736 -0.244945 0)
(4.53931 -0.315913 0)
(4.5596 -0.400572 0)
(10.0236 0.385453 0)
(10.2537 1.09643 0)
(10.6178 1.64939 0)
(10.9919 2.01117 0)
(11.2854 2.19905 0)
(11.4637 2.24877 0)
(11.5247 2.20107 0)
(11.4832 2.09322 0)
(11.3613 1.95395 0)
(11.1818 1.80291 0)
(10.9643 1.65236 0)
(10.7241 1.50919 0)
(10.4728 1.37679 0)
(10.2184 1.25636 0)
(9.96652 1.14786 0)
(9.72067 1.05063 0)
(9.48313 0.963673 0)
(9.2552 0.885947 0)
(9.03754 0.816407 0)
(8.83034 0.754087 0)
(8.63353 0.698113 0)
(8.44684 0.647717 0)
(8.2699 0.60222 0)
(8.10226 0.561035 0)
(7.94346 0.523651 0)
(7.79301 0.489625 0)
(7.65043 0.458573 0)
(7.51528 0.430163 0)
(7.38709 0.404104 0)
(7.26546 0.380144 0)
(7.14999 0.358063 0)
(7.04031 0.337669 0)
(6.93607 0.31879 0)
(6.83695 0.30128 0)
(6.74265 0.285005 0)
(6.65289 0.269851 0)
(6.56742 0.255713 0)
(6.48598 0.2425 0)
(6.40835 0.23013 0)
(6.33433 0.21853 0)
(6.26373 0.207633 0)
(6.19635 0.197382 0)
(6.13204 0.187723 0)
(6.07064 0.178607 0)
(6.01201 0.169991 0)
(5.956 0.161836 0)
(5.9025 0.154106 0)
(5.85138 0.146767 0)
(5.80254 0.139791 0)
(5.75588 0.133148 0)
(5.7113 0.126815 0)
(5.66871 0.120767 0)
(5.62803 0.114983 0)
(5.58919 0.109443 0)
(5.55211 0.104128 0)
(5.51673 0.0990219 0)
(5.48298 0.0941072 0)
(5.45081 0.0893688 0)
(5.42017 0.0847924 0)
(5.39101 0.0803643 0)
(5.36327 0.0760713 0)
(5.33693 0.0719011 0)
(5.31194 0.0678414 0)
(5.28827 0.0638807 0)
(5.26589 0.0600073 0)
(5.24477 0.0562101 0)
(5.22489 0.0524778 0)
(5.20622 0.0487991 0)
(5.18875 0.0451627 0)
(5.17247 0.0415567 0)
(5.15735 0.0379692 0)
(5.14341 0.0343874 0)
(5.13063 0.0307978 0)
(5.119 0.027186 0)
(5.10855 0.0235362 0)
(5.09927 0.0198311 0)
(5.09118 0.0160513 0)
(5.0843 0.0121749 0)
(5.07865 0.00817691 0)
(5.07426 0.00402815 0)
(5.07118 -0.000305528 0)
(5.06944 -0.00486485 0)
(5.06912 -0.00969903 0)
(5.07027 -0.0148684 0)
(5.07297 -0.020448 0)
(5.07733 -0.0265327 0)
(5.08346 -0.0332444 0)
(5.09149 -0.0407423 0)
(5.10158 -0.0492378 0)
(5.1139 -0.0590162 0)
(5.12864 -0.0704667 0)
(5.146 -0.0841248 0)
(5.16612 -0.100728 0)
(5.18907 -0.121281 0)
(5.21469 -0.147118 0)
(5.2424 -0.179912 0)
(5.27094 -0.221546 0)
(5.29797 -0.273667 0)
(5.3198 -0.336672 0)
(5.33168 -0.407905 0)
(10.0134 0.283916 0)
(10.1646 0.837082 0)
(10.4345 1.31427 0)
(10.7555 1.67861 0)
(11.061 1.9244 0)
(11.3107 2.06198 0)
(11.4852 2.11014 0)
(11.5794 2.09105 0)
(11.5989 2.02576 0)
(11.5547 1.93175 0)
(11.4599 1.82223 0)
(11.3268 1.70655 0)
(11.1664 1.5909 0)
(10.9876 1.47911 0)
(10.7975 1.37335 0)
(10.6016 1.27467 0)
(10.4037 1.18343 0)
(10.2069 1.09952 0)
(10.0133 1.02262 0)
(9.82427 0.952271 0)
(9.64078 0.887947 0)
(9.46344 0.829122 0)
(9.2926 0.775287 0)
(9.12842 0.725965 0)
(8.97092 0.680715 0)
(8.82001 0.639137 0)
(8.67557 0.600869 0)
(8.5374 0.565588 0)
(8.40529 0.533002 0)
(8.279 0.502853 0)
(8.1583 0.474909 0)
(8.04295 0.448964 0)
(7.93271 0.424834 0)
(7.82733 0.402354 0)
(7.7266 0.381378 0)
(7.63029 0.361771 0)
(7.5382 0.343418 0)
(7.45012 0.32621 0)
(7.36586 0.310053 0)
(7.28525 0.294859 0)
(7.20811 0.280551 0)
(7.13428 0.267057 0)
(7.06361 0.254315 0)
(6.99596 0.242264 0)
(6.93118 0.230853 0)
(6.86917 0.220032 0)
(6.80978 0.209757 0)
(6.75292 0.199988 0)
(6.69848 0.190686 0)
(6.64635 0.181818 0)
(6.59644 0.173352 0)
(6.54868 0.165257 0)
(6.50296 0.157508 0)
(6.45923 0.150078 0)
(6.4174 0.142944 0)
(6.37741 0.136084 0)
(6.3392 0.129476 0)
(6.3027 0.123101 0)
(6.26787 0.11694 0)
(6.23465 0.110977 0)
(6.203 0.105193 0)
(6.17287 0.0995727 0)
(6.14422 0.0941005 0)
(6.11702 0.0887612 0)
(6.09124 0.0835398 0)
(6.06684 0.0784216 0)
(6.04381 0.0733922 0)
(6.02211 0.0684369 0)
(6.00172 0.063541 0)
(5.98264 0.0586893 0)
(5.96485 0.0538662 0)
(5.94834 0.0490554 0)
(5.9331 0.0442395 0)
(5.91913 0.0394002 0)
(5.90644 0.0345174 0)
(5.89503 0.0295692 0)
(5.88491 0.0245312 0)
(5.87609 0.019376 0)
(5.86861 0.0140725 0)
(5.86249 0.00858486 0)
(5.85776 0.00287124 0)
(5.85446 -0.00311767 0)
(5.85265 -0.00944082 0)
(5.85237 -0.0161695 0)
(5.85371 -0.0233913 0)
(5.85674 -0.0312145 0)
(5.86155 -0.0397758 0)
(5.86824 -0.0492488 0)
(5.87692 -0.0598572 0)
(5.88769 -0.0718916 0)
(5.90067 -0.0857318 0)
(5.9159 -0.101875 0)
(5.9334 -0.120967 0)
(5.95302 -0.143831 0)
(5.97439 -0.171475 0)
(5.99674 -0.205045 0)
(6.01876 -0.245665 0)
(6.03845 -0.294063 0)
(6.05307 -0.349914 0)
(6.05966 -0.410927 0)
(10.0083 0.218032 0)
(10.1103 0.654705 0)
(10.3067 1.05491 0)
(10.5624 1.38931 0)
(10.8344 1.64637 0)
(11.0904 1.82553 0)
(11.3083 1.93314 0)
(11.4751 1.98002 0)
(11.5859 1.97882 0)
(11.6421 1.94194 0)
(11.649 1.88025 0)
(11.6137 1.80264 0)
(11.5437 1.71594 0)
(11.4464 1.62518 0)
(11.3282 1.53389 0)
(11.1948 1.44443 0)
(11.0507 1.35829 0)
(10.8996 1.27637 0)
(10.7446 1.1991 0)
(10.5879 1.12664 0)
(10.4313 1.05897 0)
(10.2761 0.995915 0)
(10.1234 0.937261 0)
(9.97386 0.882743 0)
(9.82804 0.83208 0)
(9.6863 0.784992 0)
(9.54887 0.741206 0)
(9.41588 0.700463 0)
(9.2874 0.662516 0)
(9.16343 0.62714 0)
(9.04393 0.594125 0)
(8.92884 0.563278 0)
(8.81806 0.534422 0)
(8.71148 0.507396 0)
(8.60898 0.482054 0)
(8.51044 0.458261 0)
(8.41573 0.435894 0)
(8.32471 0.414843 0)
(8.23726 0.395006 0)
(8.15324 0.376289 0)
(8.07252 0.358608 0)
(7.99499 0.341885 0)
(7.92052 0.326049 0)
(7.84899 0.311036 0)
(7.7803 0.296785 0)
(7.71433 0.283241 0)
(7.65099 0.270355 0)
(7.59018 0.258077 0)
(7.5318 0.246367 0)
(7.47578 0.235183 0)
(7.42201 0.224489 0)
(7.37043 0.21425 0)
(7.32095 0.204433 0)
(7.27352 0.195009 0)
(7.22805 0.185949 0)
(7.18449 0.177227 0)
(7.14278 0.168818 0)
(7.10286 0.160698 0)
(7.06468 0.152845 0)
(7.02819 0.145238 0)
(6.99335 0.137855 0)
(6.96011 0.130678 0)
(6.92844 0.123686 0)
(6.8983 0.116863 0)
(6.86965 0.110188 0)
(6.84247 0.103646 0)
(6.81673 0.0972169 0)
(6.79241 0.0908839 0)
(6.76949 0.0846286 0)
(6.74795 0.0784327 0)
(6.72777 0.0722772 0)
(6.70895 0.0661421 0)
(6.69149 0.0600065 0)
(6.67537 0.0538482 0)
(6.66059 0.047643 0)
(6.64717 0.0413648 0)
(6.63511 0.0349846 0)
(6.62442 0.02847 0)
(6.61512 0.0217845 0)
(6.60724 0.0148865 0)
(6.60079 0.00772769 0)
(6.59582 0.00025192 0)
(6.59237 -0.0076072 0)
(6.59048 -0.0159289 0)
(6.5902 -0.0248086 0)
(6.59159 -0.0343628 0)
(6.59472 -0.0447343 0)
(6.59964 -0.0561005 0)
(6.60643 -0.0686828 0)
(6.61512 -0.0827583 0)
(6.62574 -0.0986748 0)
(6.63826 -0.116866 0)
(6.65256 -0.137862 0)
(6.66838 -0.1623 0)
(6.68526 -0.190897 0)
(6.7024 -0.22439 0)
(6.71865 -0.263385 0)
(6.73237 -0.308099 0)
(6.74164 -0.357961 0)
(6.74458 -0.411171 0)
(10.0055 0.173551 0)
(10.0768 0.52511 0)
(10.2204 0.85873 0)
(10.4186 1.15346 0)
(10.6449 1.39824 0)
(10.8768 1.58894 0)
(11.096 1.72611 0)
(11.2886 1.81396 0)
(11.4457 1.85898 0)
(11.5633 1.86872 0)
(11.6409 1.85069 0)
(11.6806 1.81185 0)
(11.6861 1.75817 0)
(11.662 1.69457 0)
(11.6129 1.62492 0)
(11.5431 1.55219 0)
(11.457 1.47856 0)
(11.3579 1.40559 0)
(11.2492 1.33437 0)
(11.1334 1.26561 0)
(11.0126 1.19974 0)
(10.8888 1.13703 0)
(10.7632 1.07755 0)
(10.6372 1.02133 0)
(10.5116 0.968293 0)
(10.3873 0.918331 0)
(10.2646 0.871308 0)
(10.1442 0.827074 0)
(10.0263 0.785469 0)
(9.91116 0.746335 0)
(9.79899 0.709514 0)
(9.6899 0.674853 0)
(9.58396 0.642208 0)
(9.48121 0.611441 0)
(9.38165 0.582423 0)
(9.28528 0.555033 0)
(9.19206 0.529158 0)
(9.10195 0.504692 0)
(9.01489 0.481538 0)
(8.93083 0.459605 0)
(8.84968 0.438809 0)
(8.77139 0.419071 0)
(8.69587 0.400321 0)
(8.62305 0.38249 0)
(8.55286 0.365516 0)
(8.48522 0.349342 0)
(8.42005 0.333914 0)
(8.35729 0.319181 0)
(8.29685 0.305097 0)
(8.23868 0.291618 0)
(8.1827 0.278705 0)
(8.12885 0.266318 0)
(8.07707 0.254423 0)
(8.0273 0.242985 0)
(7.97948 0.231973 0)
(7.93355 0.221357 0)
(7.88948 0.211109 0)
(7.8472 0.201202 0)
(7.80667 0.191611 0)
(7.76784 0.18231 0)
(7.73069 0.173276 0)
(7.69516 0.164487 0)
(7.66122 0.155921 0)
(7.62885 0.147555 0)
(7.59801 0.139369 0)
(7.56867 0.131343 0)
(7.5408 0.123454 0)
(7.5144 0.115683 0)
(7.48943 0.108008 0)
(7.46588 0.100408 0)
(7.44374 0.0928607 0)
(7.423 0.0853428 0)
(7.40364 0.0778302 0)
(7.38567 0.0702971 0)
(7.36909 0.0627158 0)
(7.35389 0.0550563 0)
(7.34008 0.0472857 0)
(7.32768 0.0393674 0)
(7.31669 0.0312605 0)
(7.30713 0.0229187 0)
(7.29902 0.0142888 0)
(7.2924 0.00530988 0)
(7.28728 -0.00408949 0)
(7.2837 -0.0139931 0)
(7.2817 -0.0245001 0)
(7.28131 -0.0357293 0)
(7.28257 -0.0478231 0)
(7.2855 -0.0609536 0)
(7.29013 -0.075329 0)
(7.29645 -0.0912012 0)
(7.30443 -0.108873 0)
(7.31395 -0.128705 0)
(7.32485 -0.151114 0)
(7.3368 -0.176568 0)
(7.34932 -0.205553 0)
(7.36168 -0.238507 0)
(7.3729 -0.275715 0)
(7.38175 -0.317123 0)
(7.38686 -0.362123 0)
(7.387 -0.409349 0)
(10.004 0.142096 0)
(10.0556 0.430869 0)
(10.1623 0.710376 0)
(10.3152 0.966163 0)
(10.4981 1.18927 0)
(10.6963 1.37505 0)
(10.8964 1.52189 0)
(11.0867 1.63071 0)
(11.2583 1.70438 0)
(11.405 1.74693 0)
(11.5234 1.763 0)
(11.6124 1.75734 0)
(11.6725 1.73447 0)
(11.7055 1.69843 0)
(11.7139 1.65273 0)
(11.7005 1.60028 0)
(11.6682 1.54345 0)
(11.62 1.48409 0)
(11.5585 1.42365 0)
(11.4861 1.36322 0)
(11.4051 1.30358 0)
(11.3172 1.24531 0)
(11.2242 1.18881 0)
(11.1273 1.13434 0)
(11.0279 1.08206 0)
(10.9268 1.03203 0)
(10.8248 0.984292 0)
(10.7228 0.938816 0)
(10.6211 0.895557 0)
(10.5203 0.854444 0)
(10.4208 0.815395 0)
(10.3227 0.778321 0)
(10.2265 0.743126 0)
(10.1321 0.709715 0)
(10.0399 0.677991 0)
(9.94984 0.647861 0)
(9.86204 0.619233 0)
(9.77655 0.592021 0)
(9.69341 0.566139 0)
(9.61262 0.541509 0)
(9.53418 0.518055 0)
(9.45809 0.495705 0)
(9.38432 0.474392 0)
(9.31286 0.454053 0)
(9.24366 0.434627 0)
(9.17669 0.416059 0)
(9.11192 0.398294 0)
(9.0493 0.381284 0)
(8.98878 0.36498 0)
(8.93034 0.34934 0)
(8.87391 0.334321 0)
(8.81947 0.319883 0)
(8.76696 0.30599 0)
(8.71634 0.292606 0)
(8.66757 0.279697 0)
(8.6206 0.267232 0)
(8.57541 0.255181 0)
(8.53195 0.243513 0)
(8.49019 0.232202 0)
(8.45008 0.22122 0)
(8.4116 0.210542 0)
(8.37472 0.200143 0)
(8.3394 0.189999 0)
(8.30563 0.180084 0)
(8.27337 0.170377 0)
(8.24259 0.160853 0)
(8.21329 0.151489 0)
(8.18544 0.142262 0)
(8.15903 0.133149 0)
(8.13403 0.124125 0)
(8.11044 0.115165 0)
(8.08825 0.106243 0)
(8.06745 0.0973333 0)
(8.04804 0.0884059 0)
(8.03002 0.0794305 0)
(8.01338 0.0703739 0)
(7.99813 0.0612 0)
(7.98427 0.0518689 0)
(7.97182 0.0423364 0)
(7.96079 0.0325528 0)
(7.95119 0.0224619 0)
(7.94304 0.0119996 0)
(7.93635 0.00109232 0)
(7.93115 -0.0103454 0)
(7.92745 -0.0224128 0)
(7.92528 -0.0352261 0)
(7.92464 -0.0489219 0)
(7.92552 -0.0636608 0)
(7.92793 -0.079631 0)
(7.9318 -0.0970527 0)
(7.93706 -0.11618 0)
(7.94358 -0.137301 0)
(7.95112 -0.160732 0)
(7.95937 -0.186801 0)
(7.96786 -0.215819 0)
(7.97596 -0.248024 0)
(7.98288 -0.283504 0)
(7.98769 -0.322078 0)
(7.98942 -0.363185 0)
(7.98726 -0.405789 0)
(10.003 0.118934 0)
(10.0416 0.360551 0)
(10.1226 0.597021 0)
(10.2414 0.818362 0)
(10.388 1.01774 0)
(10.5529 1.19101 0)
(10.7269 1.33604 0)
(10.9013 1.45237 0)
(11.0684 1.54095 0)
(11.2222 1.60374 0)
(11.3583 1.64336 0)
(11.474 1.66277 0)
(11.568 1.66504 0)
(11.6401 1.65318 0)
(11.6909 1.62995 0)
(11.7216 1.59784 0)
(11.734 1.55901 0)
(11.7299 1.5153 0)
(11.7112 1.46822 0)
(11.6798 1.419 0)
(11.6376 1.36864 0)
(11.5861 1.31792 0)
(11.527 1.26742 0)
(11.4616 1.21762 0)
(11.3911 1.16885 0)
(11.3165 1.12135 0)
(11.2389 1.0753 0)
(11.159 1.0308 0)
(11.0775 0.987921 0)
(10.9951 0.94669 0)
(10.9121 0.907109 0)
(10.8291 0.869161 0)
(10.7464 0.832813 0)
(10.6643 0.798022 0)
(10.583 0.764736 0)
(10.5029 0.732899 0)
(10.4239 0.702452 0)
(10.3464 0.673334 0)
(10.2703 0.645484 0)
(10.1959 0.61884 0)
(10.1231 0.593344 0)
(10.052 0.568936 0)
(9.9826 0.545561 0)
(9.91502 0.523162 0)
(9.84923 0.501688 0)
(9.78525 0.481088 0)
(9.72306 0.461314 0)
(9.66267 0.44232 0)
(9.60406 0.42406 0)
(9.54723 0.406494 0)
(9.49215 0.389581 0)
(9.43881 0.373281 0)
(9.38719 0.35756 0)
(9.33726 0.34238 0)
(9.289 0.32771 0)
(9.24239 0.313515 0)
(9.1974 0.299766 0)
(9.15401 0.286433 0)
(9.11219 0.273486 0)
(9.07193 0.260898 0)
(9.0332 0.248641 0)
(8.99598 0.236689 0)
(8.96024 0.225016 0)
(8.92597 0.213597 0)
(8.89315 0.202406 0)
(8.86176 0.191419 0)
(8.83178 0.18061 0)
(8.80321 0.169953 0)
(8.77603 0.159424 0)
(8.75023 0.148996 0)
(8.7258 0.138642 0)
(8.70272 0.128334 0)
(8.68101 0.118043 0)
(8.66065 0.107738 0)
(8.64164 0.0973862 0)
(8.62398 0.0869512 0)
(8.60767 0.0763951 0)
(8.59272 0.0656757 0)
(8.57914 0.0547466 0)
(8.56692 0.0435561 0)
(8.55609 0.0320466 0)
(8.54664 0.0201528 0)
(8.53859 0.00780084 0)
(8.53194 -0.00509335 0)
(8.52669 -0.0186261 0)
(8.52286 -0.0329078 0)
(8.52042 -0.0480651 0)
(8.51936 -0.0642432 0)
(8.51962 -0.0816073 0)
(8.52114 -0.100344 0)
(8.52382 -0.120659 0)
(8.52748 -0.142777 0)
(8.53191 -0.166926 0)
(8.53678 -0.19333 0)
(8.54167 -0.222173 0)
(8.54607 -0.253561 0)
(8.54934 -0.287468 0)
(8.55079 -0.323667 0)
(8.54973 -0.361665 0)
(8.54559 -0.400673 0)
(10.0023 0.101298 0)
(10.0321 0.306735 0)
(10.095 0.509043 0)
(10.1884 0.701206 0)
(10.3062 0.878089 0)
(10.4421 1.03629 0)
(10.59 1.17373 0)
(10.7435 1.28951 0)
(10.8968 1.38371 0)
(11.0448 1.45715 0)
(11.1832 1.51122 0)
(11.3091 1.54766 0)
(11.4201 1.56845 0)
(11.515 1.57561 0)
(11.5933 1.57119 0)
(11.6549 1.55711 0)
(11.7006 1.53514 0)
(11.7311 1.50687 0)
(11.7476 1.4737 0)
(11.7512 1.43682 0)
(11.7434 1.39726 0)
(11.7253 1.35587 0)
(11.6982 1.31334 0)
(11.6633 1.27026 0)
(11.6218 1.22708 0)
(11.5744 1.18416 0)
(11.5223 1.14179 0)
(11.4663 1.10019 0)
(11.4069 1.05951 0)
(11.345 1.01987 0)
(11.2811 0.981372 0)
(11.2157 0.944053 0)
(11.1492 0.907948 0)
(11.0821 0.87307 0)
(11.0146 0.839416 0)
(10.947 0.806974 0)
(10.8797 0.775721 0)
(10.8127 0.745629 0)
(10.7464 0.716666 0)
(10.6808 0.688793 0)
(10.6162 0.661974 0)
(10.5525 0.636167 0)
(10.4899 0.611332 0)
(10.4285 0.587426 0)
(10.3683 0.564409 0)
(10.3094 0.542241 0)
(10.2518 0.520879 0)
(10.1956 0.500287 0)
(10.1407 0.480425 0)
(10.0873 0.461255 0)
(10.0353 0.442743 0)
(9.98473 0.424852 0)
(9.93557 0.407548 0)
(9.88784 0.390799 0)
(9.84154 0.374572 0)
(9.79666 0.358837 0)
(9.75319 0.343563 0)
(9.71114 0.328721 0)
(9.67048 0.314282 0)
(9.63121 0.300219 0)
(9.59332 0.286504 0)
(9.55679 0.27311 0)
(9.52163 0.26001 0)
(9.48781 0.247179 0)
(9.45533 0.234591 0)
(9.42419 0.222219 0)
(9.39436 0.210037 0)
(9.36584 0.198018 0)
(9.33863 0.186137 0)
(9.31272 0.174364 0)
(9.2881 0.162673 0)
(9.26477 0.151033 0)
(9.24273 0.139414 0)
(9.22197 0.127782 0)
(9.2025 0.116104 0)
(9.18431 0.104343 0)
(9.1674 0.0924579 0)
(9.15179 0.0804061 0)
(9.13747 0.0681401 0)
(9.12444 0.0556075 0)
(9.11271 0.0427504 0)
(9.10228 0.0295045 0)
(9.09315 0.0157974 0)
(9.08532 0.00154849 0)
(9.07878 -0.0133334 0)
(9.07352 -0.0289502 0)
(9.0695 -0.0454167 0)
(9.0667 -0.0628605 0)
(9.06504 -0.0814229 0)
(9.06444 -0.101258 0)
(9.06478 -0.122528 0)
(9.06589 -0.145401 0)
(9.06754 -0.17004 0)
(9.06945 -0.196586 0)
(9.07124 -0.225135 0)
(9.0725 -0.255713 0)
(9.07273 -0.288232 0)
(9.07139 -0.322456 0)
(9.068 -0.357963 0)
(9.06218 -0.394145 0)
(10.0018 0.0874887 0)
(10.0254 0.264563 0)
(10.0752 0.439548 0)
(10.1499 0.607391 0)
(10.2453 0.764213 0)
(10.3573 0.907279 0)
(10.4819 1.03478 0)
(10.6144 1.14574 0)
(10.7506 1.23986 0)
(10.8864 1.31743 0)
(11.0184 1.37913 0)
(11.1436 1.42597 0)
(11.2597 1.45916 0)
(11.3649 1.48004 0)
(11.4581 1.49003 0)
(11.5388 1.49051 0)
(11.6065 1.48284 0)
(11.6616 1.4683 0)
(11.7044 1.44806 0)
(11.7354 1.42316 0)
(11.7556 1.39455 0)
(11.7656 1.36305 0)
(11.7664 1.32936 0)
(11.7588 1.29409 0)
(11.7438 1.25774 0)
(11.7221 1.22075 0)
(11.6946 1.18347 0)
(11.662 1.14619 0)
(11.625 1.10914 0)
(11.5842 1.0725 0)
(11.5401 1.03644 0)
(11.4935 1.00106 0)
(11.4446 0.966451 0)
(11.3939 0.932676 0)
(11.3418 0.899781 0)
(11.2886 0.867794 0)
(11.2347 0.836731 0)
(11.1803 0.806599 0)
(11.1256 0.777394 0)
(11.0708 0.749106 0)
(11.0162 0.721722 0)
(10.9618 0.695221 0)
(10.9079 0.669581 0)
(10.8545 0.644777 0)
(10.8017 0.620782 0)
(10.7497 0.597568 0)
(10.6985 0.575106 0)
(10.6482 0.553366 0)
(10.5988 0.532318 0)
(10.5503 0.511932 0)
(10.503 0.492179 0)
(10.4566 0.473028 0)
(10.4114 0.45445 0)
(10.3673 0.436416 0)
(10.3243 0.418898 0)
(10.2824 0.401866 0)
(10.2417 0.385295 0)
(10.2022 0.369155 0)
(10.1639 0.35342 0)
(10.1267 0.338063 0)
(10.0907 0.323059 0)
(10.0559 0.30838 0)
(10.0223 0.294 0)
(9.98989 0.279895 0)
(9.95866 0.266036 0)
(9.92862 0.2524 0)
(9.89976 0.238958 0)
(9.87209 0.225684 0)
(9.84561 0.212551 0)
(9.8203 0.199531 0)
(9.79619 0.186593 0)
(9.77326 0.173709 0)
(9.75151 0.160847 0)
(9.73095 0.147973 0)
(9.71157 0.135052 0)
(9.69339 0.122046 0)
(9.6764 0.108915 0)
(9.66059 0.0956154 0)
(9.64599 0.0820997 0)
(9.63257 0.0683161 0)
(9.62035 0.054208 0)
(9.60932 0.0397129 0)
(9.59948 0.024762 0)
(9.59081 0.00927921 0)
(9.58329 -0.00681948 0)
(9.57691 -0.0236265 0)
(9.57162 -0.0412432 0)
(9.56738 -0.0597797 0)
(9.56411 -0.0793538 0)
(9.56171 -0.100089 0)
(9.56006 -0.122113 0)
(9.55899 -0.145546 0)
(9.55829 -0.170497 0)
(9.5577 -0.19705 0)
(9.55693 -0.225244 0)
(9.5556 -0.255052 0)
(9.55333 -0.286359 0)
(9.54974 -0.318937 0)
(9.54445 -0.352434 0)
(9.53721 -0.386369 0)
(10.0015 0.0764217 0)
(10.0206 0.230805 0)
(10.0608 0.383679 0)
(10.1214 0.531304 0)
(10.1995 0.670709 0)
(10.2924 0.799701 0)
(10.3973 0.916749 0)
(10.5108 1.02093 0)
(10.6298 1.11182 0)
(10.7513 1.18945 0)
(10.8725 1.25415 0)
(10.991 1.30647 0)
(11.1046 1.34719 0)
(11.2115 1.37716 0)
(11.3105 1.39735 0)
(11.4005 1.40873 0)
(11.481 1.41231 0)
(11.5515 1.40903 0)
(11.6121 1.39984 0)
(11.6627 1.38559 0)
(11.7038 1.36707 0)
(11.7357 1.34502 0)
(11.7589 1.32009 0)
(11.7741 1.29283 0)
(11.7817 1.26377 0)
(11.7825 1.23334 0)
(11.7771 1.20192 0)
(11.766 1.16982 0)
(11.7498 1.13734 0)
(11.7291 1.10469 0)
(11.7045 1.07207 0)
(11.6763 1.03964 0)
(11.6451 1.00753 0)
(11.6112 0.975837 0)
(11.5751 0.944658 0)
(11.5371 0.914052 0)
(11.4975 0.88407 0)
(11.4565 0.85475 0)
(11.4146 0.826117 0)
(11.3719 0.798187 0)
(11.3286 0.77097 0)
(11.2848 0.744467 0)
(11.2409 0.718677 0)
(11.1969 0.693591 0)
(11.1529 0.669197 0)
(11.1091 0.645483 0)
(11.0656 0.622432 0)
(11.0225 0.600025 0)
(10.9799 0.578242 0)
(10.9378 0.557062 0)
(10.8963 0.536464 0)
(10.8556 0.516424 0)
(10.8155 0.496919 0)
(10.7762 0.477926 0)
(10.7377 0.459421 0)
(10.7 0.44138 0)
(10.6632 0.423778 0)
(10.6273 0.406592 0)