/*--------------------------------*- C++ -*----------------------------------*\
| =========                 |                                                 |
| \\      /  F ield         | OpenFOAM: The Open Source CFD Toolbox           |
|  \\    /   O peration     | Version:  2406                                  |
|   \\  /    A nd           | Website:  www.openfoam.com                      |
|    \\/     M anipulation  |                                                 |
\*---------------------------------------------------------------------------*/
FoamFile
{
    version     2.0;
    format      ascii;
    arch        "LSB;label=32;scalar=64";
    class       volScalarField;
    location    "800";
    object      p;
}
// * * * * * * * * * * * * * * * * * * * * * * * * * * * * * * * * * * * * * //

dimensions      [0 2 -2 0 0 0 0];

internalField   nonuniform List<scalar> 
150000
(
239.117
131.977
74.9873
51.6998
38.3455
29.5328
23.765
19.7915
16.8434
14.5357
12.6604
11.091
9.74702
8.57522
7.5387
6.61086
5.7719
5.0067
4.30345
3.65276
3.04709
2.48024
1.94712
1.44346
0.965678
0.510719
0.0759836
-0.34077
-0.741483
-1.12784
-1.50133
-1.86325
-2.21475
-2.55685
-2.89046
-3.21638
-3.53536
-3.84804
-4.15502
-4.45683
-4.75397
-5.04688
-5.33596
-5.6216
-5.90413
-6.18387
-6.46111
-6.73613
-7.00919
-7.28051
-7.55033
-7.81884
-8.08625
-8.35275
-8.61851
-8.88371
-9.1485
-9.41305
-9.6775
-9.94201
-10.2067
-10.4718
-10.7373
-11.0034
-11.2704
-11.5382
-11.807
-12.0771
-12.3484
-12.6213
-12.8957
-13.172
-13.4502
-13.7306
-14.0133
-14.2985
-14.5864
-14.8773
-15.1713
-15.4688
-15.77
-16.0753
-16.3849
-16.6993
-17.0189
-17.3441
-17.6755
-18.0136
-18.3591
-18.7127
-19.0752
-19.4475
-19.831
-20.2279
-20.6429
-21.0881
-21.5888
-22.1692
-22.9002
-24.7115
138.283
98.6562
69.0623
52.4816
41.0652
32.6173
26.5776
22.1892
18.8523
16.2194
14.0825
12.3048
10.7944
9.48818
8.34183
7.32317
6.40824
5.57878
4.82067
4.12273
3.47602
2.8733
2.3086
1.77698
1.2743
0.79708
0.342338
-0.0924697
-0.509537
-0.910768
-1.29782
-1.67216
-2.03505
-2.38763
-2.73091
-3.06578
-3.39306
-3.71345
-4.02761
-4.33612
-4.63952
-4.9383
-5.23289
-5.5237
-5.8111
-6.09544
-6.37703
-6.65616
-6.93312
-7.20814
-7.48147
-7.75334
-8.02395
-8.29351
-8.56219
-8.8302
-9.09768
-9.36482
-9.63178
-9.8987
-10.1657
-10.4331
-10.7008
-10.9691
-11.2381
-11.508
-11.7789
-12.0509
-12.3242
-12.599
-12.8754
-13.1536
-13.4338
-13.7162
-14.0008
-14.288
-14.578
-14.871
-15.1673
-15.4671
-15.7707
-16.0785
-16.3909
-16.7083
-17.0311
-17.36
-17.6954
-18.0382
-18.3893
-18.7496
-19.1205
-19.5037
-19.9017
-20.3181
-20.7589
-21.2352
-21.7637
-22.3703
-23.1553
-24.4711
89.7573
78.5249
63.8765
51.7341
42.1216
34.4952
28.6194
24.1054
20.5634
17.7211
15.3945
13.4534
11.8047
10.3821
9.13777
8.03604
7.05026
6.15996
5.34921
4.60544
3.91859
3.28047
2.6844
2.12484
1.59716
1.09746
0.622437
0.169254
-0.264518
-0.680985
-1.08198
-1.4691
-1.84376
-2.20721
-2.56053
-2.90471
-3.24062
-3.56906
-3.89072
-4.20625
-4.51622
-4.82115
-5.12153
-5.41779
-5.71032
-5.9995
-6.28568
-6.56915
-6.85022
-7.12915
-7.4062
-7.68161
-7.9556
-8.22839
-8.50017
-8.77114
-9.04147
-9.31135
-9.58094
-9.85041
-10.1199
-10.3896
-10.6597
-10.9302
-11.2014
-11.4735
-11.7464
-12.0205
-12.2959
-12.5727
-12.8511
-13.1313
-13.4135
-13.6978
-13.9845
-14.2737
-14.5658
-14.8609
-15.1593
-15.4614
-15.7673
-16.0776
-16.3926
-16.7128
-17.0387
-17.3708
-17.71
-18.057
-18.4129
-18.779
-19.1569
-19.5487
-19.9576
-20.3875
-20.8443
-21.3362
-21.873
-22.4646
-23.1304
-23.8989
69.1229
65.4782
57.2554
48.4886
40.9082
34.5384
29.2884
25.0244
21.5517
18.693
16.3108
14.2996
12.5788
11.0879
9.7808
8.62267
7.58656
6.65151
5.80097
5.02176
4.30327
3.63683
3.01532
2.43285
1.88445
1.36597
0.873854
0.405083
-0.0429494
-0.472498
-0.885524
-1.28374
-1.66865
-2.04158
-2.40371
-2.75608
-3.09963
-3.4352
-3.76352
-4.08529
-4.40112
-4.71155
-5.01711
-5.31825
-5.61539
-5.90894
-6.19923
-6.48661
-6.77139
-7.05385
-7.33426
-7.61287
-7.88991
-8.16562
-8.44018
-8.71382
-8.98672
-9.25906
-9.53102
-9.80277
-10.0745
-10.3463
-10.6184
-10.891
-11.1641
-11.438
-11.7129
-11.9887
-12.2659
-12.5444
-12.8245
-13.1064
-13.3902
-13.6762
-13.9645
-14.2554
-14.5491
-14.8458
-15.1459
-15.4497
-15.7574
-16.0694
-16.3862
-16.7083
-17.0361
-17.3703
-17.7117
-18.061
-18.4194
-18.7881
-19.1687
-19.5632
-19.9739
-20.4039
-20.8565
-21.3347
-21.8393
-22.3641
-22.8901
-23.3744
56.4702
55.1407
50.4785
44.5201
38.826
33.7013
29.2037
25.353
22.0913
19.327
16.9724
14.9525
13.2047
11.6782
10.3329
9.13671
8.06422
7.09515
6.21321
5.40522
4.66042
3.96998
3.32658
2.72411
2.15744
1.62223
1.11477
0.63189
0.170869
-0.270664
-0.694767
-1.10324
-1.49767
-1.87946
-2.24983
-2.60989
-2.96063
-3.30292
-3.63755
-3.96523
-4.28662
-4.6023
-4.91279
-5.21858
-5.52013
-5.81784
-6.11208
-6.40321
-6.69154
-6.97737
-7.261
-7.54267
-7.82263
-8.10112
-8.37835
-8.65453
-8.92987
-9.20455
-9.47875
-9.75266
-10.0264
-10.3003
-10.5743
-10.8487
-11.1236
-11.3993
-11.6758
-11.9533
-12.232
-12.5121
-12.7937
-13.077
-13.3622
-13.6496
-13.9392
-14.2314
-14.5264
-14.8244
-15.1257
-15.4306
-15.7394
-16.0526
-16.3705
-16.6935
-17.0222
-17.3572
-17.6992
-18.0489
-18.4073
-18.7754
-19.1545
-19.5458
-19.9509
-20.3708
-20.8059
-21.2545
-21.7109
-22.1606
-22.5759
-22.9098
47.771
47.3222
44.654
40.661
36.4462
32.3911
28.6326
25.258
22.2869
19.6909
17.4261
15.4467
13.7095
12.1761
10.8141
9.59604
8.49948
7.50581
6.59972
5.76857
5.00188
4.29094
3.62843
3.00822
2.42509
1.87463
1.35304
0.857059
0.383882
-0.06894
-0.503541
-0.92179
-1.32533
-1.71562
-2.09394
-2.46144
-2.81915
-3.16798
-3.50875
-3.84222
-4.16905
-4.48986
-4.8052
-5.11557
-5.42145
-5.72325
-6.02138
-6.31619
-6.60802
-6.89718
-7.18397
-7.46865
-7.75148
-8.0327
-8.31254
-8.59121
-8.86892
-9.14587
-9.42225
-9.69824
-9.97401
-10.2497
-10.5256
-10.8018
-11.0784
-11.3556
-11.6337
-11.9126
-12.1928
-12.4742
-12.7571
-13.0416
-13.328
-13.6165
-13.9072
-14.2003
-14.4962
-14.795
-15.0971
-15.4026
-15.712
-16.0255
-16.3436
-16.6667
-16.9951
-17.3296
-17.6705
-18.0186
-18.3744
-18.7389
-19.1125
-19.4959
-19.8893
-20.2922
-20.7024
-21.1153
-21.5216
-21.9046
-22.2381
-22.4844
41.5869
41.4587
39.8433
37.1116
33.9873
30.8053
27.7156
24.8232
22.1828
19.8054
17.6794
15.7833
14.0919
12.5798
11.2231
10.0003
8.89285
7.88476
6.9624
6.11422
5.33043
4.60273
3.92407
3.28844
2.69071
2.12648
1.59194
1.08382
0.599251
0.135756
-0.308845
-0.736467
-1.1488
-1.54733
-1.93339
-2.30817
-2.67272
-3.02798
-3.37483
-3.71401
-4.04624
-4.37214
-4.6923
-5.00723
-5.31742
-5.62332
-5.92532
-6.22381
-6.51913
-6.81161
-7.10154
-7.38922
-7.6749
-7.95883
-8.24126
-8.52239
-8.80244
-9.08163
-9.36013
-9.63814
-9.91583
-10.1934
-10.471
-10.7488
-11.027
-11.3057
-11.5852
-11.8655
-12.1469
-12.4294
-12.7134
-12.999
-13.2863
-13.5755
-13.867
-14.1607
-14.4571
-14.7563
-15.0586
-15.3642
-15.6734
-15.9866
-16.304
-16.626
-16.953
-17.2855
-17.6237
-17.9681
-18.3192
-18.6771
-19.042
-19.4137
-19.7913
-20.173
-20.5551
-20.9313
-21.2912
-21.6192
-21.8933
-22.0865
36.9396
36.9104
35.862
33.9392
31.603
29.1082
26.588
24.1422
21.8364
19.7013
17.7455
15.9651
14.3496
12.8845
11.5546
10.3446
9.24032
8.22902
7.29928
6.4411
5.64575
4.90568
4.21434
3.56605
2.9559
2.37962
1.83351
1.31432
0.819224
0.345733
-0.108338
-0.544918
-0.965716
-1.37225
-1.76587
-2.14779
-2.51908
-2.88073
-3.2336
-3.57849
-3.91611
-4.24712
-4.57212
-4.89163
-5.20617
-5.51619
-5.8221
-6.1243
-6.42314
-6.71897
-7.01208
-7.30278
-7.59132
-7.87798
-8.16299
-8.44658
-8.72897
-9.01036
-9.29096
-9.57095
-9.85053
-10.1299
-10.4091
-10.6885
-10.9682
-11.2483
-11.529
-11.8105
-12.093
-12.3765
-12.6614
-12.9477
-13.2356
-13.5254
-13.8172
-14.1113
-14.4077
-14.7068
-15.0087
-15.3138
-15.6222
-15.9342
-16.2501
-16.5701
-16.8945
-17.2235
-17.5575
-17.8965
-18.2407
-18.5898
-18.9436
-19.301
-19.6604
-20.0192
-20.3726
-20.7141
-21.0336
-21.3176
-21.549
-21.7091
33.2745
33.2707
32.5476
31.153
29.3806
27.4129
25.3583
23.303
21.3105
19.4186
17.6467
16.0019
14.4837
13.0867
11.8026
10.622
9.53502
8.53229
7.60487
6.74461
5.94416
5.19694
4.49714
3.8396
3.21977
2.63367
2.07775
1.54892
1.04443
0.561846
0.0990212
-0.345955
-0.774784
-1.18898
-1.58991
-1.97878
-2.35669
-2.72462
-3.08347
-3.43403
-3.77705
-4.11318
-4.44304
-4.76718
-5.08611
-5.4003
-5.71018
-6.01614
-6.31856
-6.61778
-6.91412
-7.20787
-7.49933
-7.78874
-8.07636
-8.36242
-8.64715
-8.93075
-9.21344
-9.49539
-9.77682
-10.0579
-10.3388
-10.6197
-10.9007
-11.1821
-11.464
-11.7465
-12.0299
-12.3142
-12.5997
-12.8866
-13.1749
-13.4649
-13.7568
-14.0507
-14.3468
-14.6453
-14.9464
-15.2503
-15.5572
-15.8673
-16.1808
-16.4978
-16.8185
-17.143
-17.4714
-17.8035
-18.1392
-18.4779
-18.8188
-19.1605
-19.5008
-19.8364
-20.1626
-20.4729
-20.7582
-21.0076
-21.2083
-21.3472
30.2867
30.2869
29.7622
28.72
27.3511
25.7838
24.1018
22.3762
20.663
19.0003
17.4117
15.9104
14.5022
13.1877
11.9642
10.8271
9.77022
8.78736
7.87205
7.01808
6.21959
5.47116
4.76784
4.10515
3.47904
2.88591
2.3225
1.78592
1.27358
0.783169
0.31262
-0.139918
-0.576106
-0.997434
-1.40524
-1.80073
-2.185
-2.55903
-2.92371
-3.27985
-3.6282
-3.96942
-4.30413
-4.6329
-4.95624
-5.27462
-5.5885
-5.89827
-6.20431
-6.50697
-6.80657
-7.10343
-7.39783
-7.69003
-7.98029
-8.26884
-8.55592
-8.84174
-9.1265
-9.41041
-9.69365
-9.9764
-10.2589
-10.5412
-10.8235
-11.1061
-11.389
-11.6724
-11.9566
-12.2415
-12.5275
-12.8147
-13.1031
-13.3931
-13.6847
-13.9781
-14.2734
-14.5709
-14.8707
-15.1728
-15.4776
-15.7851
-16.0954
-16.4086
-16.7246
-17.0436
-17.3653
-17.6894
-18.0155
-18.3427
-18.6699
-18.9953
-19.3165
-19.6301
-19.9313
-20.2143
-20.4714
-20.6938
-20.872
-20.9972
27.7917
27.7907
27.3939
26.5933
25.5164
24.2532
22.8669
21.4142
19.9427
18.4872
17.072
15.7128
14.4189
13.1949
12.0418
10.9585
9.9421
8.98888
8.09465
7.25501
6.46556
5.72209
5.02059
4.35733
3.72885
3.13201
2.56392
2.02196
1.50378
1.00722
0.530353
0.0714245
-0.371147
-0.798795
-1.21281
-1.61438
-2.00456
-2.38432
-2.75454
-3.11604
-3.46954
-3.81571
-4.15517
-4.48849
-4.81619
-5.13875
-5.45661
-5.77018
-6.07984
-6.38595
-6.68884
-6.98882
-7.28617
-7.58118
-7.87409
-8.16514
-8.45458
-8.74261
-9.02944
-9.31527
-9.6003
-9.8847
-10.1687
-10.4523
-10.7359
-11.0195
-11.3034
-11.5876
-11.8723
-12.1577
-12.444
-12.7312
-13.0195
-13.3092
-13.6002
-13.8927
-14.1869
-14.483
-14.7809
-15.0809
-15.383
-15.6872
-15.9937
-16.3023
-16.613
-16.9256
-17.2398
-17.5551
-17.8709
-18.1861
-18.4993
-18.8086
-19.1116
-19.4047
-19.6837
-19.9433
-20.1773
-20.3787
-20.5405
-20.6565
25.6698
25.667
25.357
24.7267
23.8644
22.8338
21.6818
20.4531
19.187
17.9141
16.6573
15.4328
14.2515
13.1202
12.0425
11.0195
10.0509
9.13481
8.26903
7.4507
6.67678
5.94416
5.24976
4.59062
3.96391
3.36698
2.79737
2.25278
1.73112
1.23045
0.749019
0.285206
-0.162463
-0.595332
-1.01463
-1.42148
-1.81689
-2.20182
-2.57712
-2.94356
-3.30188
-3.65273
-3.99672
-4.33441
-4.66632
-4.99292
-5.31467
-5.63196
-5.94519
-6.25471
-6.56084
-6.86391
-7.1642
-7.46198
-7.75752
-8.05106
-8.34282
-8.63303
-8.9219
-9.20962
-9.49638
-9.78237
-10.0678
-10.3527
-10.6374
-10.922
-11.2067
-11.4915
-11.7767
-12.0624
-12.3487
-12.6358
-12.9238
-13.2128
-13.5029
-13.7943
-14.0871
-14.3813
-14.677
-14.9743
-15.2732
-15.5737
-15.8757
-16.1792
-16.484
-16.7897
-17.0959
-17.402
-17.7071
-18.0102
-18.3097
-18.6036
-18.8895
-19.1641
-19.4236
-19.6635
-19.8787
-20.0637
-20.2134
-20.3236
23.8392
23.835
23.5867
23.0799
22.3782
21.527
20.5613
19.5159
18.4228
17.3084
16.1931
15.0926
14.0183
12.9779
11.9766
11.017
10.1003
9.22651
8.39461
7.60311
6.8501
6.13346
5.45097
4.80037
4.17946
3.58608
3.0182
2.47389
1.95133
1.44884
0.964851
0.497919
0.046701
-0.390037
-0.813432
-1.22453
-1.6243
-2.01362
-2.39331
-2.76413
-3.12677
-3.48186
-3.83001
-4.17175
-4.5076
-4.83802
-5.16346
-5.48431
-5.80095
-6.11375
-6.42302
-6.72908
-7.03222
-7.33271
-7.63081
-7.92675
-8.22078
-8.51311
-8.80395
-9.09348
-9.38192
-9.66942
-9.95617
-10.2423
-10.5281
-10.8135
-11.0988
-11.3842
-11.6697
-11.9555
-12.2417
-12.5284
-12.8158
-13.104
-13.393
-13.6829
-13.9738
-14.2659
-14.559
-14.8532
-15.1486
-15.4449
-15.7422
-16.0401
-16.3385
-16.637
-16.9349
-17.2317
-17.5262
-17.8175
-18.1038
-18.3832
-18.6535
-18.9116
-19.1543
-19.3777
-19.5776
-19.7499
-19.8908
-19.9971
22.2417
22.2368
22.0338
21.6189
21.0394
20.3282
19.5114
18.6162
17.6685
16.6903
15.6999
14.7115
13.7364
12.7825
11.8557
10.9598
10.0969
9.26809
8.47356
7.71277
6.98474
6.28819
5.62161
4.98341
4.37192
3.78547
3.22245
2.68127
2.16042
1.65847
1.17405
0.705914
0.252859
-0.186219
-0.612349
-1.02649
-1.42953
-1.82229
-2.20554
-2.57998
-2.94628
-3.30504
-3.65683
-4.00217
-4.34156
-4.67545
-5.00426
-5.32839
-5.64822
-5.96408
-6.27629
-6.58518
-6.89101
-7.19407
-7.4946
-7.79284
-8.08902
-8.38336
-8.67605
-8.9673
-9.2573
-9.5462
-9.83419
-10.1214
-10.4081
-10.6943
-10.9801
-11.2658
-11.5515
-11.8372
-12.1231
-12.4093
-12.6959
-12.9829
-13.2706
-13.5588
-13.8477
-14.1372
-14.4275
-14.7184
-15.0098
-15.3017
-15.5939
-15.8861
-16.1779
-16.4689
-16.7586
-17.046
-17.3303
-17.6101
-17.8841
-18.1502
-18.4064
-18.6501
-18.8783
-19.088
-19.2756
-19.4381
-19.5724
-19.6765
20.8345
20.8294
20.6607
20.3158
19.8308
19.2302
18.5334
17.7616
16.9358
16.0745
15.1932
14.3051
13.4203
12.5471
11.6913
10.8574
10.0481
9.26531
8.50995
7.78226
7.08198
6.4085
5.76093
5.13822
4.53919
3.96261
3.40724
2.87182
2.35513
1.85599
1.37325
0.905827
0.452697
0.0128861
-0.414519
-0.830377
-1.23549
-1.63061
-2.01644
-2.39363
-2.7628
-3.12452
-3.47931
-3.82768
-4.1701
-4.50699
-4.83877
-5.16581
-5.48848
-5.8071
-6.12199
-6.43345
-6.74175
-7.04716
-7.34993
-7.65028
-7.94845
-8.24464
-8.53904
-8.83186
-9.12327
-9.41344
-9.70253
-9.9907
-10.2781
-10.5649
-10.8511
-11.137
-11.4226
-11.7081
-11.9935
-12.279
-12.5646
-12.8504
-13.1364
-13.4227
-13.7093
-13.9962
-14.2833
-14.5706
-14.8579
-15.1452
-15.4321
-15.7184
-16.0036
-16.2872
-16.5686
-16.847
-17.1214
-17.3906
-17.6531
-17.9072
-18.1509
-18.382
-18.5979
-18.7961
-18.9739
-19.1287
-19.2583
-19.3613
19.5853
19.5803
19.4381
19.1475
18.7368
18.2245
17.6251
16.9553
16.2321
15.4707
14.6846
13.8853
13.0823
12.2832
11.4939
10.719
9.96189
9.22471
8.50898
7.8155
7.14458
6.49612
5.86973
5.26482
4.68062
4.11628
3.57089
3.0435
2.53315
2.03888
1.55976
1.09488
0.643382
0.204421
-0.222795
-0.639019
-1.04496
-1.4413
-1.82866
-2.20765
-2.57881
-2.94268
-3.29976
-3.65049
-3.99533
-4.33468
-4.66892
-4.99841
-5.3235
-5.6445
-5.96171
-6.27542
-6.58589
-6.89339
-7.19813
-7.50037
-7.80029
-8.09812
-8.39404
-8.68824
-8.98088
-9.27213
-9.56215
-9.85109
-10.1391
-10.4263
-10.7127
-10.9986
-11.2841
-11.5691
-11.8539
-12.1385
-12.4229
-12.7072
-12.9914
-13.2756
-13.5597
-13.8437
-14.1275
-14.4111
-14.6942
-14.9767
-15.2582
-15.5386
-15.8172
-16.0936
-16.3671
-16.6369
-16.9019
-17.1612
-17.4132
-17.6564
-17.8891
-18.1093
-18.3149
-18.5037
-18.6735
-18.8224
-18.9488
-19.0513
18.469
18.4643
18.3431
18.0953
17.7438
17.3027
16.7831
16.1981
15.5613
14.8856
14.1823
13.4615
12.7318
12.0002
11.2725
10.5532
9.84576
9.15284
8.47622
7.81711
7.1762
6.55382
5.94998
5.36443
4.79677
4.24647
3.7129
3.19537
2.69317
2.20554
1.73175
1.27106
0.822744
0.386107
-0.0395302
-0.454816
-0.86037
-1.25679
-1.64462
-2.02441
-2.39666
-2.76185
-3.12042
-3.4728
-3.8194
-4.16058
-4.49672
-4.82814
-5.15516
-5.47809
-5.79721
-6.11279
-6.42508
-6.73433
-7.04075
-7.34457
-7.646
-7.94521
-8.2424
-8.53774
-8.8314
-9.12353
-9.41428
-9.70378
-9.99217
-10.2796
-10.5661
-10.8518
-11.1369
-11.4213
-11.7053
-11.9887
-12.2718
-12.5545
-12.8367
-13.1186
-13.4001
-13.6811
-13.9615
-14.2412
-14.52
-14.7977
-15.0739
-15.3484
-15.6206
-15.89
-16.1559
-16.4175
-16.6739
-16.9241
-17.1666
-17.4002
-17.6232
-17.8341
-18.0309
-18.2119
-18.3754
-18.5199
-18.6439
-18.7467
17.466
17.4616
17.3572
17.1438
16.8401
16.4571
16.0033
15.4891
14.9255
14.3233
13.692
13.0405
12.3762
11.7057
11.0345
10.3669
9.70646
9.05586
8.41716
7.79183
7.18089
6.58495
6.00432
5.43907
4.88908
4.35407
3.83367
3.32742
2.83479
2.35525
1.88821
1.4331
0.989328
0.556323
0.133521
-0.279629
-0.683656
-1.07907
-1.46636
-1.846
-2.21844
-2.58409
-2.94337
-3.29666
-3.64432
-3.9867
-4.32413
-4.65692
-4.98536
-5.30973
-5.63031
-5.94733
-6.26104
-6.57166
-6.87942
-7.1845
-7.4871
-7.78741
-8.0856
-8.38183
-8.67625
-8.96902
-9.26026
-9.55012
-9.8387
-10.1261
-10.4125
-10.6979
-10.9824
-11.266
-11.549
-11.8312
-12.1127
-12.3936
-12.6737
-12.9532
-13.2319
-13.5098
-13.7867
-14.0625
-14.337
-14.6099
-14.8809
-15.1497
-15.4157
-15.6784
-15.9371
-16.1912
-16.4396
-16.6814
-16.9154
-17.1405
-17.3551
-17.5579
-17.7474
-17.9221
-18.0805
-18.2215
-18.3441
-18.4476
16.5605
16.5564
16.4656
16.2801
16.0154
15.6803
15.2812
14.8265
14.3252
13.7862
13.2176
12.627
12.0212
11.4059
10.7863
10.1664
9.54984
8.93926
8.33686
7.74427
7.16271
6.59304
6.03578
5.49125
4.95955
4.44063
3.93432
3.44034
2.95837
2.48802
2.02886
1.58046
1.14236
0.7141
0.295215
-0.114747
-0.51623
-0.909669
-1.29548
-1.67408
-2.04585
-2.41117
-2.77039
-3.12386
-3.4719
-3.81483
-4.15295
-4.48653
-4.81585
-5.14117
-5.46272
-5.78074
-6.09544
-6.40705
-6.71575
-7.02174
-7.3252
-7.62628
-7.92517
-8.222
-8.51692
-8.81007
-9.10157
-9.39154
-9.68008
-9.9673
-10.2533
-10.5381
-10.8219
-11.1046
-11.3864
-11.6672
-11.947
-12.2259
-12.5039
-12.7809
-13.0567
-13.3314
-13.6048
-13.8767
-14.1469
-14.4151
-14.681
-14.9443
-15.2043
-15.4607
-15.7127
-15.9597
-16.2008
-16.4351
-16.6615
-16.879
-17.0864
-17.2824
-17.4657
-17.6352
-17.7896
-17.9281
-18.0498
-18.1543
15.7396
15.7358
15.6563
15.4937
15.2612
14.9658
14.6125
14.2082
13.7601
13.2756
12.7617
12.2248
11.6709
11.1053
10.5326
9.95669
9.38085
8.80784
8.23986
7.67864
7.12554
6.58157
6.04745
5.52366
5.01049
4.50806
4.01638
3.53534
3.06477
2.60442
2.154
1.71319
1.28166
0.859038
0.444969
0.0390828
-0.358986
-0.7496
-1.13311
-1.50987
-1.8802
-2.24444
-2.60289
-2.95587
-3.30365
-3.64651
-3.98473
-4.31855
-4.64822
-4.97397
-5.29602
-5.61458
-5.92986
-6.24204
-6.55131
-6.85785
-7.1618
-7.46334
-7.76261
-8.05975
-8.35489
-8.64815
-8.93964
-9.22948
-9.51776
-9.80457
-10.09
-10.3741
-10.6569
-10.9385
-11.2189
-11.4981
-11.7762
-12.0531
-12.3287
-12.603
-12.876
-13.1475
-13.4174
-13.6854
-13.9514
-14.215
-14.476
-14.7339
-14.9884
-15.2388
-15.4846
-15.725
-15.9595
-16.187
-16.4067
-16.6176
-16.8186
-17.0087
-17.1869
-17.3521
-17.5035
-17.6401
-17.7614
-17.8671
14.9929
14.9894
14.9192
14.7756
14.5699
14.3078
13.9932
13.6316
13.2291
12.7918
12.3257
11.8362
11.3286
10.8077
10.2775
9.7418
9.20365
8.66569
8.13012
7.59872
7.07292
6.55384
6.04232
5.53899
5.04427
4.55845
4.08165
3.61393
3.15522
2.70541
2.26433
1.83177
1.40748
0.991207
0.582669
0.181578
-0.212358
-0.599432
-0.979937
-1.35416
-1.72239
-2.08489
-2.44195
-2.79381
-3.14074
-3.48297
-3.82074
-4.15427
-4.48379
-4.80949
-5.13159
-5.45026
-5.76569
-6.07805
-6.3875
-6.69422
-6.99833
-7.29999
-7.59934
-7.89648
-8.19155
-8.48466
-8.7759
-9.06537
-9.35315
-9.63933
-9.92396
-10.2071
-10.4888
-10.7691
-11.048
-11.3256
-11.6017
-11.8764
-12.1496
-12.4213
-12.6914
-12.9596
-13.226
-13.4902
-13.752
-14.0112
-14.2675
-14.5204
-14.7695
-15.0144
-15.2544
-15.4889
-15.7173
-15.9387
-16.1524
-16.3575
-16.5531
-16.7383
-16.9121
-17.0739
-17.2227
-17.3581
-17.4794
-17.5864
14.3116
14.3085
14.246
14.1183
13.9351
13.7011
13.4194
13.0944
12.7311
12.3348
11.9104
11.4628
10.9965
10.5156
10.0241
9.52508
9.02164
8.51626
8.01105
7.50781
7.008
6.51281
6.02317
5.5398
5.06325
4.59391
4.13202
3.67775
3.23115
2.79221
2.36086
1.93698
1.52043
1.11103
0.708564
0.31283
-0.0763994
-0.459357
-0.836277
-1.20739
-1.57294
-1.93316
-2.28826
-2.63848
-2.98403
-3.32512
-3.66195
-3.99472
-4.32362
-4.64884
-4.97055
-5.28891
-5.6041
-5.91626
-6.22554
-6.53209
-6.83603
-7.1375
-7.43661
-7.73348
-8.02821
-8.32089
-8.61163
-8.90049
-9.18756
-9.47289
-9.75655
-10.0386
-10.319
-10.5979
-10.8751
-11.1508
-11.4249
-11.6974
-11.9682
-12.2371
-12.5042
-12.7693
-13.0321
-13.2926
-13.5505
-13.8054
-14.0572
-14.3053
-14.5495
-14.7891
-15.0238
-15.2529
-15.4758
-15.6918
-15.9002
-16.1002
-16.291
-16.472
-16.6423
-16.8012
-16.9481
-17.0825
-17.2041
-17.3126
13.6885
13.6856
13.6297
13.5155
13.3513
13.1412
12.8875
12.5939
12.2646
11.904
11.5163
11.1057
10.6761
10.2313
9.77461
9.30916
8.83763
8.36241
7.88554
7.40877
6.93357
6.46116
5.99254
5.52849
5.06965
4.61648
4.16935
3.72849
3.29406
2.86613
2.44473
2.02982
1.62133
1.21916
0.823166
0.433209
0.049124
-0.329265
-0.70214
-1.06969
-1.43209
-1.78955
-2.14224
-2.49036
-2.83408
-3.17358
-3.50905
-3.84063
-4.16852
-4.49285
-4.81379
-5.13147
-5.44606
-5.75767
-6.06645
-6.37251
-6.67597
-6.97694
-7.27554
-7.57186
-7.86598
-8.158
-8.448
-8.73603
-9.02217
-9.30647
-9.58897
-9.8697
-10.1487
-10.4259
-10.7015
-10.9752
-11.2472
-11.5174
-11.7856
-12.0518
-12.316
-12.5779
-12.8373
-13.0942
-13.3481
-13.599
-13.8464
-14.0901
-14.3296
-14.5645
-14.7942
-15.0184
-15.2363
-15.4474
-15.6511
-15.8466
-16.0334
-16.2108
-16.378
-16.5346
-16.6801
-16.814
-16.9359
-17.0459
13.1175
13.1148
13.0645
12.9617
12.8137
12.624
12.3944
12.1279
11.8281
11.4987
11.1433
10.7654
10.3686
9.95615
9.53107
9.09615
8.6539
8.20654
7.75602
7.30404
6.85204
6.40125
5.95269
5.50722
5.0655
4.62809
4.19542
3.76779
3.34545
2.92854
2.51717
2.11136
1.71112
1.31641
0.927159
0.543276
0.164655
-0.208828
-0.577306
-0.940918
-1.29981
-1.65414
-2.00404
-2.34968
-2.6912
-3.02875
-3.36247
-3.69252
-4.01902
-4.34213
-4.66195
-4.97864
-5.2923
-5.60306
-5.91102
-6.2163
-6.519
-6.81922
-7.11704
-7.41256
-7.70584
-7.99697
-8.28601
-8.57302
-8.85804
-9.14112
-9.4223
-9.70158
-9.979
-10.2545
-10.5282
-10.7999
-11.0697
-11.3375
-11.6032
-11.8667
-12.1279
-12.3866
-12.6428
-12.8961
-13.1463
-13.3933
-13.6367
-13.8761
-14.1112
-14.3416
-14.5669
-14.7865
-15
-15.2067
-15.4062
-15.5979
-15.7811
-15.9554
-16.1201
-16.2748
-16.4191
-16.5527
-16.6752
-16.7866
12.5932
12.5908
12.5452
12.4522
12.3181
12.1459
11.9371
11.6942
11.4201
11.118
10.7911
10.4423
10.0747
9.69134
9.29483
8.8877
8.47227
8.0506
7.62454
7.19569
6.76548
6.33512
5.90564
5.47792
5.05268
4.63051
4.2119
3.79722
3.38678
2.98079
2.5794
2.18272
1.79081
1.40368
1.02133
0.643712
0.270773
-0.0975638
-0.461386
-0.820793
-1.17589
-1.52679
-1.87361
-2.21647
-2.55548
-2.89077
-3.22246
-3.55066
-3.87549
-4.19707
-4.5155
-4.83089
-5.14335
-5.45298
-5.75988
-6.06412
-6.36582
-6.66503
-6.96185
-7.25635
-7.54858
-7.83862
-8.12651
-8.41231
-8.69604
-8.97775
-9.25745
-9.53516
-9.81088
-10.0846
-10.3563
-10.6259
-10.8935
-11.1588
-11.422
-11.6827
-11.941
-12.1967
-12.4496
-12.6995
-12.9462
-13.1894
-13.4289
-13.6644
-13.8955
-14.1218
-14.3429
-14.5584
-14.7678
-14.9706
-15.1664
-15.3546
-15.5348
-15.7064
-15.869
-16.0222
-16.1656
-16.299
-16.4222
-16.5351
12.1113
12.1091
12.0676
11.983
11.8609
11.7039
11.5131
11.2906
11.0391
10.7611
10.4592
10.1363
9.79489
9.43765
9.06697
8.68513
8.29425
7.89622
7.49279
7.08549
6.67568
6.26455
5.85314
5.44231
5.03283
4.62533
4.22032
3.81823
3.41941
3.02414
2.63262
2.245
1.8614
1.48189
1.10651
0.735261
0.368137
0.00510288
-0.353887
-0.708894
-1.05999
-1.40725
-1.75075
-2.09059
-2.42686
-2.75965
-3.08905
-3.41517
-3.73808
-4.05789
-4.37468
-4.68855
-4.99958
-5.30785
-5.61344
-5.91644
-6.21691
-6.51492
-6.81054
-7.10382
-7.39483
-7.6836
-7.97018
-8.25461
-8.53691
-8.81711
-9.09521
-9.37123
-9.64515
-9.91696
-10.1866
-10.4541
-10.7194
-10.9823
-11.2429
-11.5009
-11.7564
-12.009
-12.2588
-12.5054
-12.7487
-12.9884
-13.2243
-13.456
-13.6833
-13.9057
-14.1231
-14.3348
-14.5405
-14.7399
-14.9324
-15.1176
-15.295
-15.4643
-15.6252
-15.7771
-15.9199
-16.0533
-16.1771
-16.2913
11.668
11.6659
11.628
11.5506
11.4389
11.295
11.12
10.9154
10.6836
10.4268
10.1472
9.84729
9.52932
9.19559
8.84828
8.48945
8.121
7.74472
7.36221
6.97492
6.58417
6.1911
5.79672
5.40192
5.00746
4.61398
4.22206
3.83214
3.44461
3.05979
2.67794
2.29925
1.92388
1.55195
1.18354
0.818691
0.457442
0.0997978
-0.254252
-0.604733
-0.951681
-1.29514
-1.63517
-1.97182
-2.30516
-2.63526
-2.96219
-3.28602
-3.60682
-3.92466
-4.23962
-4.55177
-4.86117
-5.16789
-5.47201
-5.77357
-6.07264
-6.36927
-6.66352
-6.95543
-7.24505
-7.5324
-7.81753
-8.10046
-8.38121
-8.65978
-8.93619
-9.21043
-9.48248
-9.75232
-10.0199
-10.2852
-10.5482
-10.8087
-11.0667
-11.3221
-11.5747
-11.8244
-12.0711
-12.3146
-12.5546
-12.791
-13.0234
-13.2516
-13.4754
-13.6943
-13.9081
-14.1164
-14.3189
-14.515
-14.7046
-14.8871
-15.0622
-15.2296
-15.3888
-15.5397
-15.682
-15.8155
-15.94
-16.0556
11.2598
11.2579
11.2231
11.152
11.0494
10.917
10.7556
10.5668
10.3524
10.1143
9.85447
9.57506
9.27807
8.96551
8.63934
8.30142
7.95348
7.59716
7.23396
6.86524
6.49224
6.11608
5.73773
5.35807
4.97786
4.59777
4.21837
3.84015
3.46353
3.08886
2.71643
2.34647
1.97919
1.61474
1.25323
0.89476
0.53939
0.187164
-0.161896
-0.50778
-0.850495
-1.19006
-1.52649
-1.85983
-2.19012
-2.51739
-2.8417
-3.1631
-3.48163
-3.79736
-4.11033
-4.4206
-4.72822
-5.03324
-5.33572
-5.63569
-5.93322
-6.22833
-6.52107
-6.81148
-7.09958
-7.3854
-7.66897
-7.95029
-8.22938
-8.50624
-8.78088
-9.05326
-9.32338
-9.5912
-9.85668
-10.1198
-10.3804
-10.6385
-10.894
-11.1467
-11.3966
-11.6435
-11.8873
-12.1277
-12.3646
-12.5978
-12.827
-13.052
-13.2724
-13.4881
-13.6987
-13.9039
-14.1033
-14.2966
-14.4835
-14.6636
-14.8366
-15.0023
-15.1602
-15.3102
-15.4521
-15.5858
-15.711
-15.8278
10.884
10.8822
10.8501
10.7845
10.6898
10.5674
10.4181
10.2431
10.044
9.82254
9.58034
9.31925
9.04107
8.74759
8.44056
8.12164
7.79243
7.45443
7.10902
6.75749
6.401
6.04062
5.67731
5.31192
4.9452
4.57782
4.21038
3.84337
3.47723
3.11235
2.74905
2.38759
2.02821
1.67108
1.31638
0.964204
0.614667
0.267839
-0.0762277
-0.417494
-0.755937
-1.09155
-1.42432
-1.75427
-2.08141
-2.40576
-2.72735
-3.0462
-3.36236
-3.67585
-3.98671
-4.29499
-4.60071
-4.90391
-5.20463
-5.50291
-5.79877
-6.09225
-6.38337
-6.67217
-6.95865
-7.24284
-7.52475
-7.80439
-8.08175
-8.35683
-8.62963
-8.90011
-9.16826
-9.43403
-9.69739
-9.95826
-10.2166
-10.4723
-10.7253
-10.9755
-11.2227
-11.4669
-11.7078
-11.9453
-12.1792
-12.4094
-12.6355
-12.8574
-13.0748
-13.2875
-13.4951
-13.6974
-13.8941
-14.0848
-14.2693
-14.4473
-14.6185
-14.7826
-14.9394
-15.0887
-15.2303
-15.3641
-15.49
-15.608
10.538
10.5363
10.5066
10.4458
10.358
10.2445
10.1058
9.94298
9.75748
9.55071
9.32419
9.07948
8.81819
8.54191
8.25219
7.95055
7.63843
7.31722
6.98819
6.65254
6.31138
5.96572
5.61648
5.26449
4.91049
4.55516
4.19907
3.84275
3.48666
3.13119
2.77669
2.42346
2.07174
1.72177
1.37371
1.02772
0.68393
0.342438
0.00332753
-0.333338
-0.667508
-0.999149
-1.32824
-1.65475
-1.97869
-2.30006
-2.61886
-2.9351
-3.2488
-3.55997
-3.86865
-4.17483
-4.47856
-4.77985
-5.07873
-5.37521
-5.66933
-5.96108
-6.25051
-6.53761
-6.8224
-7.10489
-7.38507
-7.66296
-7.93853
-8.21179
-8.4827
-8.75125
-9.0174
-9.28112
-9.54234
-9.80101
-10.0571
-10.3104
-10.561
-10.8086
-11.0533
-11.2948
-11.533
-11.7677
-11.9988
-12.2261
-12.4494
-12.6684
-12.883
-13.0928
-13.2977
-13.4973
-13.6915
-13.8799
-14.0622
-14.2383
-14.4078
-14.5706
-14.7265
-14.8751
-15.0165
-15.1505
-15.2771
-15.3962
10.2196
10.218
10.1904
10.1339
10.0521
9.94635
9.81702
9.66503
9.49157
9.29791
9.08538
8.85534
8.60923
8.34845
8.0744
7.78846
7.49194
7.1861
6.87212
6.55114
6.22418
5.89221
5.5561
5.21667
4.87464
4.53067
4.18534
3.83918
3.49267
3.1462
2.80016
2.45485
2.11055
1.7675
1.42591
1.08596
0.747797
0.411548
0.0773225
-0.254793
-0.584724
-0.912413
-1.23781
-1.56089
-1.88161
-2.19997
-2.51594
-2.82953
-3.14072
-3.44952
-3.75594
-4.05998
-4.36166
-4.66097
-4.95793
-5.25256
-5.54486
-5.83483
-6.12249
-6.40784
-6.69088
-6.97161
-7.25003
-7.52612
-7.79987
-8.07126
-8.34027
-8.60687
-8.87102
-9.13267
-9.39177
-9.64826
-9.90206
-10.1531
-10.4013
-10.6465
-10.8886
-11.1276
-11.3632
-11.5952
-11.8237
-12.0483
-12.2688
-12.4852
-12.6971
-12.9043
-13.1066
-13.3038
-13.4957
-13.6819
-13.8623
-14.0367
-14.2047
-14.3663
-14.5213
-14.6694
-14.8107
-14.9449
-15.072
-15.1921
9.92689
9.92539
9.89957
9.84681
9.77043
9.67154
9.55049
9.40807
9.24531
9.06333
8.86329
8.6464
8.41393
8.16714
7.90728
7.6356
7.35329
7.06151
6.76136
6.45389
6.14006
5.82079
5.49692
5.16923
4.83842
4.50514
4.16997
3.83344
3.49603
3.15815
2.82019
2.48248
2.14531
1.80895
1.47362
1.13953
0.806848
0.47572
0.146279
-0.181365
-0.507119
-0.830902
-1.15265
-1.4723
-1.78982
-2.10516
-2.41829
-2.7292
-3.03786
-3.34426
-3.64839
-3.95025
-4.24983
-4.54712
-4.84213
-5.13486
-5.42529
-5.71344
-5.99929
-6.28285
-6.5641
-6.84304
-7.11965
-7.39392
-7.66582
-7.93534
-8.20244
-8.46708
-8.72923
-8.98883
-9.24583
-9.50017
-9.75176
-10.0005
-10.2464
-10.4892
-10.729
-10.9654
-11.1985
-11.4281
-11.654
-11.876
-12.094
-12.3078
-12.5172
-12.722
-12.922
-13.117
-13.3067
-13.491
-13.6696
-13.8424
-14.0091
-14.1696
-14.3238
-14.4715
-14.6126
-14.747
-14.8747
-14.9957
9.65816
9.65674
9.63254
9.58309
9.51145
9.41863
9.30492
9.171
9.01777
8.8462
8.65733
8.45224
8.23203
7.99785
7.75083
7.49209
7.22273
6.94381
6.65634
6.36129
6.05959
5.75208
5.43959
5.12284
4.80252
4.47927
4.15366
3.82622
3.49742
3.1677
2.83744
2.50699
2.17665
1.84672
1.51742
1.18899
0.861617
0.535465
0.210685
-0.112592
-0.434253
-0.754199
-1.07234
-1.38862
-1.70295
-2.0153
-2.32561
-2.63384
-2.93997
-3.24396
-3.54579
-3.84545
-4.14291
-4.43816
-4.73119
-5.02198
-5.31053
-5.59682
-5.88084
-6.16258
-6.44202
-6.71915
-6.99394
-7.26637
-7.53643
-7.80406
-8.06925
-8.33195
-8.59211
-8.84968
-9.10461
-9.35682
-9.60625
-9.85282
-10.0964
-10.337
-10.5744
-10.8085
-11.0392
-11.2663
-11.4898
-11.7094
-11.925
-12.1364
-12.3435
-12.546
-12.7438
-12.9367
-13.1245
-13.307
-13.484
-13.6553
-13.8208
-13.9804
-14.1339
-14.2811
-14.4221
-14.5567
-14.6849
-14.8068
9.41191
9.41057
9.3878
9.34126
9.27382
9.18639
9.0792
8.95283
8.80808
8.64581
8.46694
8.27242
8.06325
7.84045
7.60504
7.35804
7.10046
6.83326
6.5574
6.27377
5.98323
5.6866
5.38464
5.07807
4.76754
4.45367
4.13703
3.81814
3.49747
3.17546
2.85251
2.52896
2.20514
1.88135
1.55785
1.23486
0.9126
0.591255
0.270992
-0.0480414
-0.365715
-0.681913
-0.996533
-1.30949
-1.62069
-1.93008
-2.23759
-2.54318
-2.84679
-3.14838
-3.44791
-3.74537
-4.04071
-4.33391
-4.62494
-4.9138
-5.20045
-5.48487
-5.76705
-6.04696
-6.32458
-6.59989
-6.87286
-7.14345
-7.41165
-7.67742
-7.9407
-8.20147
-8.45967
-8.71524
-8.96814
-9.21828
-9.4656
-9.71001
-9.95143
-10.1898
-10.4249
-10.6567
-10.8851
-11.11
-11.3311