/*--------------------------------*- C++ -*----------------------------------*\
| =========                 |                                                 |
| \\      /  F ield         | OpenFOAM: The Open Source CFD Toolbox           |
|  \\    /   O peration     | Version:  2406                                  |
|   \\  /    A nd           | Website:  www.openfoam.com                      |
|    \\/     M anipulation  |                                                 |
\*---------------------------------------------------------------------------*/
FoamFile
{
    version     2.0;
    format      ascii;
    arch        "LSB;label=32;scalar=64";
    class       surfaceScalarField;
    location    "800";
    object      phi;
}
// * * * * * * * * * * * * * * * * * * * * * * * * * * * * * * * * * * * * * //

dimensions      [0 3 -1 0 0 0 0];

oriented        oriented;

internalField   nonuniform List<scalar> 
299000
(
0.0796643
0.0203357
0.058679
0.0209853
0.0442545
0.0144246
0.0348016
0.00945289
0.0284995
0.00630209
0.0241891
0.00431042
0.0211372
0.00305185
0.0188875
0.00224968
0.0171634
0.00172413
0.015797
0.00136638
0.014684
0.00111304
0.0137569
0.000927038
0.0129708
0.000786098
0.0122945
0.000676379
0.0117055
0.000589003
0.0111874
0.000518086
0.0107278
0.0004596
0.0103171
0.000410707
0.00994772
0.000369351
0.0096137
0.000334013
0.00931016
0.000303546
0.00903309
0.000277068
0.0087792
0.000253892
0.00854572
0.000233476
0.00833034
0.000215386
0.00813107
0.000199271
0.00794622
0.000184847
0.00777434
0.000171877
0.00761418
0.000160166
0.00746462
0.000149553
0.00732472
0.000139899
0.00719364
0.000131088
0.00707061
0.000123023
0.00695499
0.000115618
0.00684619
0.0001088
0.00674369
0.000102506
0.00664701
9.66828e-05
0.00655572
9.12813e-05
0.00646946
8.626e-05
0.00638788
8.15821e-05
0.00631067
7.72152e-05
0.00623754
7.31306e-05
0.00616823
6.93025e-05
0.00610252
6.57083e-05
0.0060402
6.23274e-05
0.00598106
5.91415e-05
0.00592492
5.61341e-05
0.00587163
5.32902e-05
0.00582103
5.05963e-05
0.00577299
4.80401e-05
0.00572738
4.56104e-05
0.00568409
4.32969e-05
0.005643
4.10901e-05
0.00560402
3.89814e-05
0.00556705
3.69627e-05
0.00553203
3.50266e-05
0.00549886
3.3166e-05
0.00546749
3.13746e-05
0.00543784
2.96461e-05
0.00540986
2.79748e-05
0.00538351
2.63551e-05
0.00535873
2.47818e-05
0.00533548
2.32498e-05
0.00531372
2.17541e-05
0.00529343
2.02899e-05
0.00527458
1.88523e-05
0.00525714
1.74367e-05
0.00524111
1.6038e-05
0.00522645
1.46515e-05
0.00521318
1.3272e-05
0.00520129
1.18942e-05
0.00519077
1.05124e-05
0.00518165
9.1205e-06
0.00517394
7.71192e-06
0.00516766
6.27936e-06
0.00516285
4.81467e-06
0.00515954
3.30862e-06
0.00515779
1.75063e-06
0.00515766
1.28396e-07
0.00515923
-1.57259e-06
0.0051626
-3.36967e-06
0.00516789
-5.28381e-06
0.00517523
-7.34079e-06
0.0051848
-9.57289e-06
0.00519682
-1.20214e-05
0.00521156
-1.47407e-05
0.00522937
-1.78046e-05
0.00525068
-2.13186e-05
0.00527612
-2.54406e-05
0.00530655
-3.04238e-05
0.00534325
-3.66988e-05
0.00538829
-4.50441e-05
0.00544523
-5.69372e-05
0.00552053
-7.52983e-05
0.00562666
-0.000106132
0.00578874
-0.000162079
0.00605796
-0.000269221
0.00654017
-0.000482209
0.00749833
-0.000958165
-0.0022684
0.00976673
0.105208
0.0151279
0.100188
0.0260052
0.0901924
0.0244201
0.0797497
0.0198956
0.070567
0.0154847
0.0629849
0.0118925
0.0568421
0.00919465
0.0518613
0.00723047
0.0477844
0.00580107
0.0444037
0.00474708
0.0415614
0.00395529
0.0391403
0.00334823
0.037053
0.00287334
0.0352345
0.00249486
0.0336354
0.00218812
0.0322177
0.0019358
0.0309518
0.00172551
0.0298143
0.00154821
0.0287865
0.00139719
0.0278531
0.00126739
0.0270017
0.00115491
0.0262221
0.00105672
0.0255055
0.000970447
0.0248448
0.000894185
0.0242338
0.000826402
0.0236672
0.000765853
0.0231405
0.000711516
0.0226499
0.000662546
0.0221918
0.000618239
0.0217633
0.000578003
0.0213619
0.000541339
0.0209852
0.000507824
0.0206311
0.000477094
0.0202979
0.00044884
0.0199839
0.000422792
0.0196877
0.000398718
0.0194079
0.000376414
0.0191435
0.000355705
0.0188933
0.000336434
0.0186565
0.000318463
0.018432
0.000301673
0.0182192
0.000285954
0.0180173
0.000271212
0.0178256
0.00025736
0.0176436
0.000244321
0.0174707
0.000232027
0.0173065
0.000220416
0.0171503
0.00020943
0.0170019
0.000199019
0.0168608
0.000189136
0.0167267
0.00017974
0.0165992
0.00017079
0.016478
0.000162251
0.0163629
0.00015409
0.0162536
0.000146277
0.0161498
0.000138783
0.0160514
0.000131582
0.0159581
0.00012465
0.0158698
0.000117962
0.0157863
0.000111498
0.0157074
0.000105235
0.015633
9.91548e-05
0.0155631
9.32371e-05
0.0154973
8.74635e-05
0.0154358
8.18156e-05
0.0153784
7.62754e-05
0.015325
7.08249e-05
0.0152756
6.54459e-05
0.0152301
6.012e-05
0.0151886
5.4828e-05
0.0151509
4.95501e-05
0.0151172
4.42653e-05
0.0150873
3.8951e-05
0.0150615
3.35829e-05
0.0150396
2.8134e-05
0.0150218
2.25745e-05
0.0150083
1.68704e-05
0.0149991
1.09829e-05
0.0149943
4.86694e-06
0.0149943
-1.53048e-06
0.0149992
-8.27278e-06
0.0150093
-1.54369e-05
0.0150251
-2.31176e-05
0.015047
-3.14339e-05
0.0150755
-4.05389e-05
0.0151114
-5.06336e-05
0.0151556
-6.19911e-05
0.0152092
-7.49959e-05
0.015274
-9.02114e-05
0.0153521
-0.000108502
0.0154466
-0.000131252
0.0155624
-0.000160783
0.0157066
-0.000201116
0.0158907
-0.000259434
0.0161334
-0.000348834
0.0164646
-0.000493288
0.0169313
-0.00073597
0.0176045
-0.00115534
0.018548
-0.00190169
-0.00319464
0.0194742
0.105142
0.00998563
0.10894
0.0222076
0.107707
0.025653
0.103023
0.0245795
0.096785
0.0217229
0.0902283
0.0184491
0.0840023
0.0154206
0.0783692
0.0128636
0.0733842
0.0107861
0.0690098
0.0091214
0.0651757
0.00778948
0.0618057
0.00671815
0.0588303
0.00584881
0.056189
0.00513609
0.0538316
0.00454557
0.0517161
0.00405122
0.0498083
0.00363336
0.0480795
0.00327696
0.0465063
0.00297044
0.0450689
0.00270483
0.0437507
0.00247305
0.0425379
0.00226952
0.0414186
0.00208973
0.0403828
0.00193007
0.0394216
0.00178757
0.0385276
0.00165982
0.0376943
0.0015448
0.0369161
0.00144082
0.0361878
0.0013465
0.0355052
0.00126063
0.0348643
0.0011822
0.0342618
0.00111037
0.0336945
0.00104437
0.0331597
0.000983591
0.0326551
0.000927464
0.0321783
0.000875511
0.0317274
0.000827313
0.0313006
0.0007825
0.0308963
0.000740749
0.0305129
0.000701773
0.0301493
0.000665317
0.0298041
0.000631155
0.0294762
0.000599085
0.0291647
0.000568926
0.0288685
0.000540517
0.0285868
0.00051371
0.0283188
0.000488374
0.0280639
0.000464389
0.0278212
0.000441647
0.0275903
0.000420047
0.0273706
0.0003995
0.0271614
0.000379922
0.0269624
0.000361238
0.0267732
0.000343375
0.0265932
0.000326271
0.0264221
0.000309862
0.0262596
0.000294094
0.0261053
0.000278912
0.025959
0.000264268
0.0258204
0.000250113
0.0256892
0.000236404
0.0255653
0.000223097
0.0254484
0.00021015
0.0253383
0.000197524
0.0252349
0.00018518
0.0251381
0.000173078
0.0250478
0.000161181
0.0249638
0.00014945
0.0248861
0.000137846
0.0248146
0.000126328
0.0247492
0.000114854
0.0246901
0.000103379
0.0246372
9.18576e-05
0.0245906
8.02372e-05
0.0245502
6.8462e-05
0.0245163
5.64695e-05
0.024489
4.41893e-05
0.0244685
3.15409e-05
0.0244549
1.84313e-05
0.0244486
4.75089e-06
0.02445
-9.63069e-06
0.0244594
-2.48714e-05
0.0244775
-4.11657e-05
0.0245048
-5.87568e-05
0.0245422
-7.79562e-05
0.0245907
-9.91709e-05
0.0246517
-0.000122948
0.0247267
-0.000150044
0.0248181
-0.000181542
0.0249286
-0.000219041
0.0250623
-0.000264989
0.0252248
-0.000323239
0.0254237
-0.00040001
0.0256698
-0.000505499
0.0259774
-0.00065652
0.0263646
-0.000880475
0.0268492
-0.00122054
0.0274349
-0.00174107
0.0280592
-0.00252592
-0.00362287
0.0284874
0.103312
0.00667358
0.108501
0.0170186
0.111574
0.0225802
0.111771
0.0243821
0.109656
0.0238386
0.106063
0.0220417
0.101729
0.0197548
0.097164
0.0174284
0.0926725
0.0152777
0.088413
0.0133809
0.0844549
0.0117476
0.0808166
0.0103565
0.0774896
0.00917578
0.0744531
0.00817257
0.0716815
0.00731718
0.0691485
0.00658425
0.0668291
0.00595277
0.0647005
0.00540555
0.0627423
0.00492863
0.0609365
0.00451064
0.0592672
0.00414235
0.0577205
0.00381621
0.0562842
0.00352601
0.0549476
0.00326663
0.0537014
0.00303382
0.0525372
0.00282404
0.0514477
0.0026343
0.0504264
0.00246209
0.0494676
0.00230527
0.0485662
0.00216204
0.0477176
0.00203083
0.0469177
0.0019103
0.0461627
0.0017993
0.0454495
0.00169682
0.044775
0.00160198
0.0441365
0.00151401
0.0435315
0.00143226
0.0429579
0.00135611
0.0424136
0.00128505
0.0418968
0.00121862
0.0414057
0.00115639
0.0409388
0.00109801
0.0404948
0.00104313
0.0400722
0.000991472
0.03967
0.000942754
0.039287
0.00089674
0.0389221
0.000853212
0.0385746
0.000811971
0.0382434
0.000772835
0.0379278
0.000735641
0.037627
0.000700236
0.0373405
0.000666482
0.0370675
0.000634252
0.0368074
0.000603426
0.0365598
0.000573896
0.0363241
0.00054556
0.0360999
0.000518322
0.0358867
0.000492092
0.0356842
0.000466788
0.0354919
0.00044233
0.0353097
0.000418641
0.0351372
0.00039565
0.034974
0.000373287
0.0348201
0.000351485
0.0346751
0.000330176
0.0345388
0.000309298
0.0344112
0.000288784
0.0342921
0.00026857
0.0341814
0.000248591
0.0340789
0.000228779
0.0339847
0.000209064
0.0338987
0.000189372
0.0338209
0.000169624
0.0337514
0.000149738
0.0336903
0.000129619
0.0336376
0.000109167
0.0335935
8.82646e-05
0.0335583
6.67826e-05
0.0335321
4.45697e-05
0.0335154
2.14491e-05
0.0335086
-2.78856e-06
0.0335121
-2.83959e-05
0.0335266
-5.56818e-05
0.0335529
-8.50308e-05
0.0335919
-0.00011693
0.0336447
-0.000152011
0.0337129
-0.000191106
0.0337982
-0.000235347
0.0339029
-0.000286304
0.0340301
-0.000346217
0.0341835
-0.000418357
0.0343678
-0.0005076
0.0345891
-0.000621311
0.0348543
-0.000770676
0.0351703
-0.000972546
0.0355415
-0.00125161
0.0359629
-0.00164192
0.0364068
-0.00218506
0.0367986
-0.0029177
-0.00382917
0.0370049
0.102077
0.00459614
0.106347
0.0127485
0.110418
0.0185097
0.113045
0.0217548
0.113911
0.0229731
0.113195
0.0227578
0.11129
0.0216593
0.108609
0.0201092
0.105491
0.0183963
0.102179
0.0166923
0.0988384
0.0150884
0.0955698
0.0136251
0.092432
0.0123136
0.0894552
0.0111494
0.0866515
0.0101208
0.0840226
0.00921324
0.0815633
0.00841202
0.0792655
0.00770339
0.0771191
0.007075
0.0751137
0.00651606
0.0732388
0.00601728
0.0714843
0.00557066
0.0698409
0.00516941
0.0682998
0.00480772
0.066853
0.00448063
0.0654931
0.0041839
0.0642135
0.00391391
0.0630081
0.00366754
0.0618712
0.00344211
0.060798
0.00323528
0.0597838
0.00304506
0.0588244
0.00286968
0.0579161
0.00270761
0.0570554
0.00255752
0.0562391
0.00241823
0.0554644
0.0022887
0.0547287
0.00216802
0.0540294
0.00205536
0.0533644
0.00195002
0.0527317
0.00185133
0.0521294
0.00175873
0.0515557
0.0016717
0.0510091
0.00158977
0.050488
0.00151252
0.0499912
0.00143958
0.0495173
0.0013706
0.0490653
0.00130527
0.0486339
0.0012433
0.0482223
0.00118443
0.0478295
0.00112843
0.0474547
0.00107508
0.047097
0.00102418
0.0467557
0.000975534
0.0464302
0.000928982
0.0461197
0.00088436
0.0458237
0.00084152
0.0455417
0.000800322
0.0452732
0.000760636
0.0450177
0.000722339
0.0447747
0.000685313
0.0445439
0.000649449
0.0443249
0.000614639
0.0441174
0.000580782
0.0439211
0.000547778
0.0437357
0.00051553
0.0435611
0.000483942
0.0433969
0.000452921
0.0432431
0.000422371
0.0430995
0.000392196
0.042966
0.000362297
0.0428425
0.000332573
0.042729
0.000302916
0.0426254
0.000273214
0.0425318
0.000243344
0.0424482
0.000213174
0.0423748
0.000182558
0.0423118
0.000151331
0.0422592
0.000119308
0.0422175
8.62774e-05
0.042187
5.19904e-05
0.042168
1.61554e-05
0.0421612
-2.15769e-05
0.0421672
-6.16304e-05
0.0421867
-0.000104528
0.0422207
-0.000150924
0.0422703
-0.000201653
0.042337
-0.000257799
0.0424224
-0.000320795
0.0425287
-0.000392577
0.0426583
-0.000475804
0.0428141
-0.00057419
0.0429995
-0.000692987
0.0432179
-0.000839654
0.0434719
-0.00102474
0.0437622
-0.00126286
0.044084
-0.00157338
0.0444219
-0.00197977
0.0447422
-0.00250535
0.0449862
-0.00316171
-0.00392346
0.0450805
0.101292
0.00330398
0.104405
0.00963585
0.108104
0.0148106
0.111405
0.018454
0.113751
0.0206268
0.114945
0.0215641
0.115039
0.0215653
0.114219
0.020929
0.112711
0.0199048
0.110724
0.0186785
0.108435
0.0173776
0.105977
0.0160831
0.103448
0.0148428
0.100915
0.0136818
0.0984255
0.0126107
0.0960075
0.0116313
0.0936789
0.0107405
0.0914497
0.00993262
0.089324
0.00920067
0.0873025
0.00853754
0.0853835
0.00793628
0.0835638
0.00739039
0.0818393
0.00689395
0.0802054
0.00644163
0.0786573
0.00602867
0.0771904
0.00565086
0.0757998
0.00530447
0.0744811
0.00498622
0.07323
0.00469321
0.0720425
0.00442288
0.0709145
0.00417297
0.0698427
0.00394149
0.0688237
0.00372668
0.0678542
0.00352695
0.0669315
0.00334093
0.0660529
0.00316737
0.0652157
0.00300516
0.0644178
0.00285331
0.0636569
0.00271093
0.062931
0.00257723
0.0622382
0.00245148
0.0615769
0.00233304
0.0609453
0.00222132
0.0603421
0.00211579
0.0597657
0.00201597
0.0592149
0.00192141
0.0586884
0.00183172
0.0581852
0.00174652
0.0577041
0.00166548
0.0572443
0.0015883
0.0568047
0.00151468
0.0563845
0.00144436
0.0559829
0.0013771
0.0555992
0.00131268
0.0552327
0.00125087
0.0548827
0.00119149
0.0545487
0.00113435
0.0542301
0.00107928
0.0539263
0.0010261
0.0536369
0.000974672
0.0533615
0.00092484
0.0530997
0.000876462
0.0528511
0.000829402
0.0526153
0.000783525
0.0523922
0.000738703
0.0521813
0.000694806
0.0519825
0.000651709
0.0517956
0.000609283
0.0516204
0.0005674
0.0514568
0.000525929
0.0513046
0.000484734
0.0511639
0.000443672
0.0510345
0.000402594
0.0509165
0.000361339
0.0508099
0.000319732
0.0507149
0.000277581
0.0506316
0.000234674
0.0505601
0.000190771
0.0505008
0.000145598
0.0504539
9.88392e-05
0.05042
5.01237e-05
0.0503994
-9.87084e-07
0.0503928
-5.50206e-05
0.0504008
-0.00011262
0.0504245
-0.000174578
0.0504647
-0.00024189
0.0505228
-0.000315821
0.0506
-0.000398005
0.050698
-0.000490578
0.0508185
-0.00059637
0.0509635
-0.00071917
0.0511346
-0.000864067
0.0513328
-0.00103788
0.0515577
-0.00124962
0.0518056
-0.00151081
0.0520676
-0.00183531
0.0523256
-0.00223783
0.0525501
-0.00272982
0.0526996
-0.00331124
-0.00395715
0.0527333
0.100819
0.00248547
0.103015
0.00743886
0.105987
0.0118392
0.109099
0.015342
0.111865
0.0178604
0.113983
0.0194458
0.115324
0.0202248
0.11589
0.0203632
0.115765
0.02003
0.115068
0.0193748
0.113928
0.0185183
0.112459
0.0175515
0.110762
0.0165397
0.108917
0.0155271
0.106986
0.014542
0.105015
0.0136015
0.103041
0.0127149
0.101088
0.011886
0.0991729
0.0111155
0.0973087
0.0104018
0.0955029
0.00974205
0.0937604
0.00913296
0.0920835
0.00857081
0.0904732
0.0080519
0.0889293
0.00757263
0.0874506
0.00712958
0.0860354
0.0067196
0.0846819
0.00633976
0.0833877
0.00598739
0.0821505
0.00566005
0.0809679
0.00535555
0.0798375
0.00507189
0.0787569
0.00480727
0.0777238
0.00456005
0.076736
0.00432877
0.0757913
0.00411209
0.0748876
0.00390882
0.0740231
0.00371786
0.0731958
0.00353823
0.072404
0.00336903
0.071646
0.00320944
0.0709203
0.00305874
0.0702254
0.00291623
0.0695599
0.00278131
0.0689225
0.0026534
0.0683119
0.002532
0.067727
0.00241662
0.0671667
0.00230684
0.0666299
0.00220224
0.0661158
0.00210246
0.0656233
0.00200715
0.0651516
0.001916
0.0647001
0.0018287
0.0642678
0.00174497
0.0638541
0.00166457
0.0634583
0.00158725
0.0630799
0.00151278
0.0627182
0.00144094
0.0623728
0.00137153
0.0620431
0.00130436
0.0617287
0.00123924
0.0614292
0.00117599
0.0611441
0.00111444
0.0608732
0.00105443
0.0606161
0.000995791
0.0603726
0.000938362
0.0601423
0.000881984
0.0599251
0.000826497
0.0597208
0.000771741
0.0595291
0.000717549
0.0593501
0.000663754
0.0591836
0.000610176
0.0590296
0.000556631
0.058888
0.000502918
0.0587589
0.000448822
0.0586424
0.000394109
0.0585385
0.000338518
0.0584475
0.000281759
0.0583696
0.000223502
0.0583051
0.000163369
0.0582543
0.000100921
0.0582177
3.5644e-05
0.0581957
-3.30735e-05
0.0581891
-0.000105967
0.0581984
-0.00018393
0.0582246
-0.000268062
0.0582685
-0.000359732
0.0583312
-0.000460662
0.0584136
-0.000573034
0.0585169
-0.00069964
0.0586418
-0.000844057
0.0587886
-0.00101087
0.0589566
-0.00120586
0.0591432
-0.00143623
0.0593428
-0.00171044
0.0595452
-0.00203775
0.059734
-0.00242658
0.0598856
-0.00288144
0.059972
-0.00339768
-0.00395489
0.0599698
0.100541
0.00194467
0.102093
0.00588684
0.104369
0.00956265
0.106997
0.0127143
0.10963
0.0152272
0.111998
0.0170786
0.113919
0.0183035
0.115305
0.0189774
0.116138
0.0191964
0.116453
0.0190605
0.116309
0.0186617
0.115782
0.0180793
0.114944
0.0173773
0.113865
0.0166057
0.112606
0.0158012
0.111217
0.0149904
0.10974
0.0141919
0.108209
0.0134178
0.106648
0.0126757
0.10508
0.01197
0.10352
0.0113026
0.101978
0.0106741
0.100465
0.0100839
0.0989866
0.00953055
0.0975468
0.00901241
0.0961489
0.00852753
0.0947946
0.00807386
0.0934851
0.00764934
0.0922205
0.00725195
0.0910008
0.00687978
0.0898254
0.00653097
0.0886935
0.00620381
0.087604
0.0058967
0.0865559
0.00560813
0.085548
0.00533673
0.0845788
0.00508122
0.0836472
0.00484043
0.0827518
0.00461327
0.0818913
0.00439874
0.0810644
0.00419594
0.0802698
0.00400401
0.0795064
0.00382218
0.0787729
0.00364974
0.0780682
0.00348601
0.0773912
0.0033304
0.0767408
0.00318234
0.0761161
0.0030413
0.0755162
0.00290682
0.07494
0.00277842
0.0743867
0.00265571
0.0738556
0.00253829
0.0733458
0.00242579
0.0728566
0.00231789
0.0723873
0.00221427
0.0719373
0.00211461
0.0715059
0.00201866
0.0710925
0.00192613
0.0706967
0.00183679
0.0703178
0.00175038
0.0699555
0.00166669
0.0696092
0.00158549
0.0692787
0.00150657
0.0689634
0.00142973
0.068663
0.00135478
0.0683773
0.00128152
0.0681059
0.00120975
0.0678486
0.00113929
0.0676052
0.00106994
0.0673754
0.00100152
0.0671591
0.000933827
0.0669562
0.00086666
0.0667666
0.000799807
0.0665901
0.00073305
0.0664269
0.000666152
0.0662769
0.000598862
0.0661401
0.000530904
0.0660166
0.000461977
0.0659066
0.000391745
0.0658103
0.00031983
0.0657279
0.000245804
0.0656596
0.000169173
0.0656059
8.93638e-05
0.0655671
5.7056e-06
0.0655437
-8.25978e-05
0.0655363
-0.000176498
0.0655454
-0.000277145
0.0655716
-0.000385936
0.0656155
-0.000504582
0.0656777
-0.00063519
0.0657584
-0.000780358
0.0658576
-0.000943283
0.0659746
-0.00112786
0.0661075
-0.00133877
0.0662527
-0.00158142
0.066404
-0.00186172
0.0665517
-0.00218543
0.0666819
-0.00255686
0.0667772
-0.00297674
0.0668187
-0.00343913
-0.00392829
0.0667921
0.100374
0.00157035
0.101489
0.00477202
0.10321
0.00784129
0.105327
0.0105979
0.107614
0.0129404
0.109867
0.0148248
0.111925
0.0162463
0.113672
0.0172304
0.115044
0.0178243
0.116018
0.0180858
0.116604
0.0180762
0.116829
0.0178538
0.116735
0.0174712
0.116368
0.0169732
0.115772
0.0163967
0.114992
0.0157711
0.114065
0.0151191
0.113024
0.0144579
0.1119
0.0138
0.110716
0.0131544
0.109491
0.0125273
0.108242
0.0119229
0.106983
0.0113435
0.105723
0.0107904
0.104471
0.0102643
0.103234
0.00976477
0.102016
0.00929141
0.100822
0.00884332
0.0996546
0.00841945
0.0985157
0.00801868
0.0974069
0.00763979
0.0963291
0.00728159
0.0952829
0.00694287
0.0942686
0.00662246
0.0932861
0.00631925
0.0923352
0.00603215
0.0914155
0.00576014
0.0905264
0.00550227
0.0896676
0.00525762
0.0888381
0.00502535
0.0880375
0.00480466
0.0872649
0.0045948
0.0865195
0.00439507
0.0858007
0.00420483
0.0851077
0.00402345
0.0844396
0.00385038
0.0837959
0.00368507
0.0831756
0.00352703
0.0825783
0.0033758
0.0820031
0.00323093
0.0814493
0.00309201
0.0809165
0.00295866
0.0804038
0.00283051
0.0799109
0.00270722
0.079437
0.00258847
0.0789817
0.00247395
0.0785445
0.00236336
0.0781249
0.00225644
0.0777223
0.0021529
0.0773365
0.00205251
0.076967
0.00195501
0.0766134
0.00186017
0.0762754
0.00176776
0.0759526
0.00167754
0.0756448
0.00158931
0.0753517
0.00150285
0.075073
0.00141793
0.0748086
0.00133435
0.0745583
0.00125187
0.0743218
0.00117028
0.0740992
0.00108935
0.0738901
0.00100883
0.0736947
0.000928473
0.0735128
0.000848019
0.0733445
0.000767178
0.0731898
0.000685642
0.0730487
0.000603075
0.0729213
0.000519103
0.0728078
0.000433312
0.0727084
0.000345233
0.0726233
0.000254334
0.0725526
0.000160005
0.0724968
6.15363e-05
0.0724561
-4.18962e-05
0.0724308
-0.000151263
0.0724214
-0.000267713
0.0724281
-0.000392611
0.0724511
-0.000527586
0.0724905
-0.00067458
0.072546
-0.000835909
0.0726171
-0.00101431
0.0727021
-0.00121295
0.0727988
-0.00143545
0.0729031
-0.00168571
0.073009
-0.00196762
0.0731081
-0.0022845
0.0731894
-0.00263813
0.0732399
-0.0030273
0.0732469
-0.00344617
-0.00388285
0.0732015
0.10027
0.00130014
0.10109
0.00395202
0.102397
0.00653414
0.104073
0.00892251
0.105976
0.0110374
0.107966
0.0128345
0.109917
0.0142952
0.111726
0.015422
0.113316
0.016234
0.11464
0.0167612
0.115677
0.0170401
0.116421
0.0171092
0.116886
0.0170065
0.117092
0.0167673
0.117065
0.016423
0.116836
0.0160007
0.116432
0.0155228
0.115882
0.0150079
0.115211
0.0144708
0.114443
0.013923
0.113597
0.0133735
0.11269
0.0128291
0.111739
0.0122946
0.110756
0.0117738
0.109751
0.011269
0.108734
0.0107819
0.107712
0.0103135
0.106691
0.00986419
0.105676
0.00943403
0.104672
0.00902286
0.103682
0.00863028
0.102708
0.00825573
0.101752
0.00789859
0.100816
0.00755815
0.0999018
0.00723369
0.0990095
0.00692445
0.0981399
0.00662969
0.0972935
0.00634866
0.0964705
0.00608064
0.0956709
0.00582492
0.0948948
0.00558083
0.0941419
0.00534773
0.093412
0.00512498
0.0927048
0.00491201
0.09202
0.00470825
0.0913572
0.00451316
0.090716
0.00432625
0.090096
0.00414703
0.0894968
0.00397504
0.0889178
0.00380986
0.0883588
0.00365107
0.0878191
0.0034983
0.0872985
0.00335116
0.0867964
0.00320931
0.0863125
0.00307241
0.0858463
0.00294015
0.0853974
0.00281222
0.0849655
0.00268832
0.0845503
0.00256818
0.0841512
0.00245152
0.0837682
0.00233809
0.0834007
0.00222762
0.0830486
0.00211986
0.0827116
0.00201458
0.0823894
0.00191153
0.0820817
0.00181048
0.0817885
0.00171118
0.0815094
0.00161339
0.0812444
0.00151688
0.0809933
0.0014214
0.080756
0.00132669
0.0805323
0.00123249
0.0803222
0.00113852
0.0801258
0.00104449
0.0799429
0.000950096
0.0797735
0.000854995
0.0796178
0.000758824
0.0794757
0.000661185
0.0793473
0.000561634
0.0792329
0.000459679
0.0791325
0.000354764
0.0790462
0.000246258
0.0789743
0.000133441
0.0789169
1.54862e-05
0.0788742
-0.000108562
0.0788463
-0.000239811
0.0788333
-0.000379548
0.0788349
-0.000529268
0.0788511
-0.000690702
0.078881
-0.000865841
0.0789236
-0.00105694
0.0789772
-0.00126651
0.079039
-0.00149723
0.079105
-0.00175178
0.07917
-0.00203259
0.0792269
-0.00234135
0.079267
-0.00267829
0.0792811
-0.0030414
0.0792604
-0.00342542
-0.00382133
0.0791989
0.100202
0.00109785
0.100821
0.0033332
0.101827
0.00552863
0.103151
0.00759812
0.104707
0.00948132
0.106401
0.0111403
0.108142
0.012554
0.109849
0.0137157
0.111452
0.0146305
0.112901
0.0153124
0.11416
0.0157815
0.115207
0.0160613
0.116037
0.0161771
0.11665
0.0161541
0.117057
0.0160164
0.117271
0.0157859
0.117312
0.0154825
0.117197
0.0151231
0.116945
0.0147224
0.116575
0.0142925
0.116105
0.0138435
0.115551
0.0133835
0.114926
0.012919
0.114245
0.0124552
0.113518
0.0119961
0.112755
0.0115446
0.111966
0.0111031
0.111157
0.0106732
0.110335
0.0102561
0.109505
0.0098524
0.108673
0.00946264
0.107841
0.00908697
0.107015
0.00872537
0.106195
0.0083777
0.105385
0.00804369
0.104587
0.00772299
0.103801
0.00741521
0.10303
0.00711989
0.102274
0.00683656
0.101534
0.00656474
0.100811
0.00630394
0.100105
0.00605366
0.0994166
0.00581341
0.0987459
0.00558273
0.098093
0.00536113
0.097458
0.00514816
0.0968409
0.00494339
0.0962415
0.00474638
0.0956598
0.00455673
0.0950957
0.00437404
0.0945488
0.00419792
0.0940191
0.00402802
0.0935063
0.00386397
0.0930101
0.00370544
0.0925304
0.00355211
0.0920669
0.00340365
0.0916194
0.00325977
0.0911875
0.00312017
0.0907712
0.00298456
0.09037
0.00285267
0.0899839
0.00272423
0.0896125
0.00259897
0.0892558
0.00247663
0.0889134
0.00235697
0.0885852
0.00223972
0.088271
0.00212464
0.0879707
0.00201147
0.0876842
0.00189995
0.0874112
0.00178984
0.0871518
0.00168086
0.0869057
0.00157275
0.086673
0.00146522
0.0864535
0.00135797
0.0862473
0.00125071
0.0860543
0.00114309
0.0858745
0.00103477
0.085708
0.000925363
0.0855547
0.000814449
0.0854148
0.000701571
0.0852882
0.000586225
0.0851752
0.000467845
0.0850756
0.0003458
0.0849897
0.000219378
0.0849174
8.77724e-05
0.0848588
-4.99292e-05
0.0848137
-0.000194766
0.0847821
-0.000347915
0.0847635
-0.000510712
0.0847575
-0.000684654
0.084763
-0.000871405
0.0847789
-0.00107278
0.084803
-0.00129068
0.0848328
-0.00152702
0.0848646
-0.00178359
0.0848938
-0.00206175
0.0849146
-0.00236213
0.0849204
-0.00268414
0.0849045
-0.00302546
0.0848606
-0.00338158
-0.00374557
0.0847849
0.100156
0.000941695
0.100635
0.00285449
0.101421
0.00474215
0.102476
0.00654371
0.103743
0.00821378
0.105162
0.00972153
0.106669
0.0110475
0.108202
0.0121824
0.109707
0.013125
0.111139
0.0138809
0.11246
0.0144605
0.113643
0.0148777
0.114672
0.0151482
0.115537
0.0152891
0.116236
0.0153176
0.116772
0.0152502
0.117152
0.0151027
0.117386
0.0148893
0.117485
0.0146229
0.117463
0.0143147
0.117332
0.0139745
0.117105
0.0136107
0.116793
0.0132304
0.116409
0.0128393
0.115963
0.0124424
0.115464
0.0120436
0.114921
0.011646
0.114342
0.0112523
0.113734
0.0108644
0.113102
0.0104838
0.112453
0.0101117
0.111791
0.00974897
0.111121
0.00939617
0.110445
0.00905369
0.109767
0.00872173
0.109089
0.00840039
0.108415
0.00808963
0.107745
0.00778935
0.107083
0.00749936
0.106428
0.00721943
0.105782
0.0069493
0.105147
0.00668867
0.104524
0.00643722
0.103912
0.00619462
0.103312
0.00596054
0.102726
0.00573463
0.102153
0.00551654
0.101593
0.00530594
0.101047
0.00510248
0.100516
0.00490582
0.0999979
0.00471564
0.0994943
0.00453162
0.0990048
0.00435344
0.0985295
0.00418079
0.0980682
0.00401337
0.097621
0.00385088
0.0971877
0.00369305
0.0967683
0.00353958
0.0963627
0.0033902
0.0959707
0.00324465
0.0955923
0.00310265
0.0952273
0.00296394
0.0948757
0.00282827
0.0945373
0.00269537
0.094212
0.00256499
0.0938998
0.00243687
0.0936005
0.00231076
0.093314
0.00218638
0.0930404
0.00206348
0.0927795
0.00194178
0.0925312
0.001821
0.0922956
0.00170084
0.0920726
0.00158101
0.0918621
0.00146118
0.0916642
0.001341
0.0914789
0.00122012
0.0913061
0.00109814
0.0911459
0.000974642
0.0909983
0.000849158
0.0908633
0.000721182
0.090741
0.000590157
0.0906314
0.000455464
0.0905343
0.000316415
0.0904499
0.000172245
0.0903778
2.21011e-05
0.090318
-0.000134967
0.0902701
-0.000300013
0.0902336
-0.000474199
0.0902077
-0.000658788
0.0901915
-0.000855138
0.0901834
-0.00106466
0.0901815
-0.00128877
0.0901832
-0.00152879
0.0901854
-0.0017858
0.0901841
-0.00206046
0.0901748
-0.00235275
0.0901523
-0.00266165
0.0901116
-0.00298484
0.0900486
-0.0033185
-0.00365724
0.0899602
0.100124
0.000818015
0.100502
0.00247568
0.101129
0.00411601
0.101978
0.00569462
0.103014
0.00717707
0.104197
0.00853865
0.105482
0.00976262
0.106825
0.0108394
0.108185
0.0117655
0.109523
0.0125425
0.110808
0.0131753
0.112014
0.013672
0.11312
0.0140423
0.114112
0.0142974
0.11498
0.014449
0.115721
0.0145091
0.116335
0.0144894
0.116823
0.0144011
0.117191
0.0142547
0.117446
0.0140597
0.117596
0.0138249
0.117648
0.0135579
0.117613
0.0132655
0.117499
0.0129537
0.117314
0.0126275
0.117066
0.0122912
0.116764
0.0119485
0.116413
0.0116025
0.116022
0.0112556
0.115596
0.01091
0.11514
0.0105675
0.11466
0.0102293
0.114159
0.00989655
0.113643
0.00957012
0.113114
0.00925065
0.112576
0.0089386
0.112031
0.00863431
0.111483
0.00833799
0.110932
0.00804976
0.110382
0.00776966
0.109834
0.00749766
0.109289
0.00723367
0.108748
0.00697756
0.108214
0.00672919
0.107686
0.00648835
0.107166
0.00625483
0.106654
0.00602842
0.106151
0.00580888
0.105657
0.00559594
0.105174
0.00538937
0.1047
0.00518891
0.104238
0.00499428
0.103786
0.00480524
0.103345
0.00462152
0.102916
0.00444286
0.102498
0.00426901
0.102091
0.00409969
0.101696
0.00393467
0.101312
0.00377368
0.100941
0.00361648
0.10058
0.0034628
0.100232
0.00331241
0.0998952
0.00316505
0.0995701
0.00302046
0.0992567
0.00287841
0.098955
0.00273863
0.0986649
0.00260087
0.0983864
0.00246486
0.0981195
0.00233033
0.0978643
0.00219702
0.0976206
0.00206464
0.0973886
0.00193289
0.0971681
0.00180145
0.0969593
0.00167002
0.0967621
0.00153824
0.0965764
0.00140574
0.0964024
0.00127214
0.0962401
0.00113701
0.0960893
0.000999897
0.0959502
0.000860301
0.0958227
0.00071768
0.0957067
0.000571444
0.0956022
0.000420941
0.095509
0.000265461
0.0954268
0.000104223
0.0953555
-6.36247e-05
0.0952945
-0.000239004
0.0952432
-0.000422906
0.0952008
-0.000616375
0.0951661
-0.000820492
0.0951378
-0.00103633
0.0951139
-0.0012649
0.0950922
-0.00150707
0.0950698
-0.00176342
0.0950435
-0.00203416
0.0950096
-0.00231885
0.0949643
-0.0026163
0.0949038
-0.00292435
0.094825
-0.00323975
-0.00355827
0.0947261
0.1001
0.000717946
0.100406
0.00216983
0.100913
0.00360886
0.101606
0.00500182
0.102461
0.00632219
0.103449
0.00755008
0.104541
0.00867134
0.105703
0.00967716
0.106905
0.0105633
0.108118
0.0113293
0.109316
0.0119775
0.110476
0.0125124
0.111578
0.0129403
0.112607
0.0132683
0.113551
0.0135045
0.114403
0.0136573
0.115157
0.0137352
0.115812
0.0137466
0.116367
0.0136996
0.116825
0.0136021
0.117188
0.0134611
0.117463
0.0132834
0.117653
0.0130749
0.117766
0.012841
0.117807
0.0125867
0.117782
0.0123161
0.117698
0.0120329
0.11756
0.0117406
0.117374
0.0114417
0.117145
0.0111388
0.116879
0.0108338
0.116579
0.0105285
0.116252
0.0102243
0.115899
0.00992244
0.115526
0.00962386
0.115135
0.00932937
0.11473
0.0090396
0.114313
0.00875506
0.113887
0.00847613
0.113453
0.00820309
0.113015
0.00793613
0.112573
0.00767539
0.11213
0.00742091
0.111686
0.00717272
0.111244
0.00693078
0.110803
0.00669503
0.110367
0.00646536
0.109934
0.00624165
0.109506
0.00602376
0.109084
0.00581154
0.108668
0.00560479
0.108259
0.00540335
0.107857
0.00520701
0.107463
0.00501557
0.107077
0.00482883
0.106699
0.00464657
0.106331
0.00446858
0.105971
0.00429464
0.10562
0.00412453
0.105278
0.00395801
0.104946
0.00379488
0.104624
0.00363489
0.104311
0.00347781
0.104008
0.00332341
0.103715
0.00317145
0.103432
0.00302169
0.103159
0.00287388
0.102896
0.00272776
0.102643
0.00258307
0.102401
0.00243955
0.102168
0.00229691
0.101946
0.00215485
0.101735
0.00201308
0.101534
0.00187128
0.101343
0.00172909
0.101162
0.00158617
0.100992
0.00144213
0.100833
0.00129655
0.100684
0.001149
0.100545
0.000998992
0.100417
0.000846017
0.100299
0.000689517
0.100191
0.000528888
0.100093
0.000363481
0.100004
0.000192595
0.0999251
1.54821e-05
0.0998547
-0.000168651
0.0997924
-0.000360633
0.0997374