/*--------------------------------*- C++ -*----------------------------------*\
| =========                 |                                                 |
| \\      /  F ield         | OpenFOAM: The Open Source CFD Toolbox           |
|  \\    /   O peration     | Version:  2406                                  |
|   \\  /    A nd           | Website:  www.openfoam.com                      |
|    \\/     M anipulation  |                                                 |
\*---------------------------------------------------------------------------*/
FoamFile
{
    version     2.0;
    format      ascii;
    arch        "LSB;label=32;scalar=64";
    class       volVectorField;
    location    "800";
    object      U;
}
// * * * * * * * * * * * * * * * * * * * * * * * * * * * * * * * * * * * * * //

dimensions      [0 1 -1 0 0 0 0];

internalField   nonuniform List<vector> 
150000
(
(7.94097 0.953546 0)
(6.6975 1.02916 0)
(5.17749 0.578432 0)
(3.90217 0.294374 0)
(3.11146 0.166104 0)
(2.60338 0.0998796 0)
(2.2473 0.0624372 0)
(1.98817 0.0414195 0)
(1.79339 0.0293181 0)
(1.6415 0.021913 0)
(1.51925 0.017097 0)
(1.4184 0.0137954 0)
(1.33355 0.0114239 0)
(1.26101 0.00965121 0)
(1.19817 0.00828233 0)
(1.14314 0.00719751 0)
(1.0945 0.00631968 0)
(1.05118 0.00559713 0)
(1.01233 0.00499391 0)
(0.977292 0.00448423 0)
(0.945516 0.0040491 0)
(0.916571 0.00367424 0)
(0.890094 0.00334871 0)
(0.865785 0.003064 0)
(0.843393 0.00281337 0)
(0.822703 0.00259145 0)
(0.803534 0.00239392 0)
(0.78573 0.00221721 0)
(0.769156 0.00205844 0)
(0.753695 0.00191519 0)
(0.739244 0.00178544 0)
(0.725713 0.00166749 0)
(0.713025 0.00155991 0)
(0.701108 0.00146149 0)
(0.6899 0.00137117 0)
(0.679347 0.00128806 0)
(0.669398 0.00121138 0)
(0.66001 0.00114045 0)
(0.651141 0.00107468 0)
(0.642757 0.00101357 0)
(0.634824 0.000956642 0)
(0.627313 0.000903508 0)
(0.620198 0.000853812 0)
(0.613453 0.000807236 0)
(0.607056 0.000763498 0)
(0.600987 0.000722345 0)
(0.595227 0.000683552 0)
(0.58976 0.000646912 0)
(0.584569 0.000612241 0)
(0.57964 0.00057937 0)
(0.574961 0.000548148 0)
(0.570518 0.000518433 0)
(0.566301 0.000490099 0)
(0.5623 0.000463026 0)
(0.558505 0.000437106 0)
(0.554907 0.000412237 0)
(0.5515 0.000388326 0)
(0.548274 0.000365282 0)
(0.545225 0.000343024 0)
(0.542345 0.000321472 0)
(0.53963 0.00030055 0)
(0.537074 0.000280186 0)
(0.534673 0.00026031 0)
(0.532424 0.000240853 0)
(0.530322 0.000221748 0)
(0.528366 0.000202927 0)
(0.526552 0.000184323 0)
(0.524878 0.000165867 0)
(0.523344 0.000147487 0)
(0.521948 0.00012911 0)
(0.52069 0.000110658 0)
(0.519569 9.2047e-05 0)
(0.518587 7.31866e-05 0)
(0.517745 5.39775e-05 0)
(0.517045 3.43094e-05 0)
(0.51649 1.40583e-05 0)
(0.516082 -6.91686e-06 0)
(0.515828 -2.87783e-05 0)
(0.515732 -5.17148e-05 0)
(0.515803 -7.595e-05 0)
(0.516047 -0.00010175 0)
(0.516477 -0.000129435 0)
(0.517104 -0.000159392 0)
(0.517946 -0.000192103 0)
(0.519019 -0.000228172 0)
(0.52035 -0.000268385 0)
(0.521968 -0.000313813 0)
(0.523912 -0.00036601 0)
(0.526233 -0.000427444 0)
(0.529001 -0.000502439 0)
(0.532319 -0.000599301 0)
(0.536345 -0.000735098 0)
(0.541337 -0.000946516 0)
(0.54776 -0.0013164 0)
(0.55648 -0.00204246 0)
(0.569129 -0.00359362 0)
(0.588885 -0.00703948 0)
(0.623483 -0.0156091 0)
(0.69475 -0.0458334 0)
(0.806349 -0.169376 0)
(10.2186 1.88712 0)
(10.3826 2.72495 0)
(9.62168 2.24108 0)
(8.49556 1.62035 0)
(7.47668 1.14058 0)
(6.64213 0.808039 0)
(5.96298 0.586496 0)
(5.41216 0.439646 0)
(4.96408 0.340513 0)
(4.59522 0.271612 0)
(4.28713 0.22215 0)
(4.02625 0.185508 0)
(3.80256 0.157577 0)
(3.60858 0.135748 0)
(3.43872 0.11832 0)
(3.28866 0.10415 0)
(3.1551 0.0924494 0)
(3.03543 0.082658 0)
(2.92757 0.0743696 0)
(2.82984 0.0672826 0)
(2.74087 0.0611688 0)
(2.65955 0.0558527 0)
(2.58493 0.0511975 0)
(2.51623 0.0470949 0)
(2.45278 0.0434583 0)
(2.39402 0.0402176 0)
(2.33946 0.0373158 0)
(2.28868 0.0347058 0)
(2.24132 0.0323486 0)
(2.19706 0.0302115 0)
(2.15563 0.0282672 0)
(2.11677 0.0264923 0)
(2.08028 0.0248671 0)
(2.04595 0.0233746 0)
(2.01363 0.0220002 0)
(1.98315 0.0207313 0)
(1.95439 0.0195569 0)
(1.92721 0.0184674 0)
(1.9015 0.0174544 0)
(1.87717 0.0165106 0)
(1.85413 0.0156293 0)
(1.83228 0.0148049 0)
(1.81156 0.0140322 0)
(1.7919 0.0133066 0)
(1.77323 0.012624 0)
(1.7555 0.0119807 0)
(1.73865 0.0113734 0)
(1.72264 0.0107991 0)
(1.70742 0.010255 0)
(1.69296 0.00973865 0)
(1.6792 0.00924784 0)
(1.66613 0.00878048 0)
(1.65371 0.00833467 0)
(1.6419 0.00790866 0)
(1.63068 0.00750082 0)
(1.62004 0.00710967 0)
(1.60993 0.00673379 0)
(1.60035 0.00637188 0)
(1.59128 0.0060227 0)
(1.58269 0.00568508 0)
(1.57457 0.00535792 0)
(1.56691 0.00504016 0)
(1.5597 0.00473076 0)
(1.55292 0.00442873 0)
(1.54656 0.0041331 0)
(1.54061 0.0038429 0)
(1.53507 0.00355717 0)
(1.52993 0.00327493 0)
(1.52519 0.0029952 0)
(1.52084 0.00271695 0)
(1.51688 0.0024391 0)
(1.51331 0.00216052 0)
(1.51013 0.00187998 0)
(1.50734 0.00159617 0)
(1.50495 0.00130761 0)
(1.50297 0.00101267 0)
(1.5014 0.000709501 0)
(1.50026 0.000395964 0)
(1.49956 6.95879e-05 0)
(1.49931 -0.000272545 0)
(1.49955 -0.000633928 0)
(1.50029 -0.0010188 0)
(1.50158 -0.00143237 0)
(1.50345 -0.00188122 0)
(1.50595 -0.00237377 0)
(1.50915 -0.00292115 0)
(1.51313 -0.00353856 0)
(1.51799 -0.00424765 0)
(1.52387 -0.00508086 0)
(1.53095 -0.0060895 0)
(1.53949 -0.00735944 0)
(1.54987 -0.00904203 0)
(1.56265 -0.0114158 0)
(1.57874 -0.0150119 0)
(1.59954 -0.0208703 0)
(1.62736 -0.0310523 0)
(1.6659 -0.0495979 0)
(1.72169 -0.0844504 0)
(1.80382 -0.152272 0)
(1.89697 -0.286004 0)
(10.1768 1.34552 0)
(10.7882 2.53797 0)
(10.9413 2.66466 0)
(10.5996 2.36743 0)
(10.0101 1.96121 0)
(9.34892 1.57593 0)
(8.70048 1.25814 0)
(8.10393 1.01161 0)
(7.57274 0.824128 0)
(7.10604 0.681542 0)
(6.69733 0.572059 0)
(6.33882 0.486805 0)
(6.02306 0.419369 0)
(5.74353 0.365189 0)
(5.49468 0.321015 0)
(5.27194 0.284515 0)
(5.07153 0.253987 0)
(4.89032 0.228175 0)
(4.72574 0.20614 0)
(4.57564 0.187163 0)
(4.43823 0.170692 0)
(4.31199 0.156293 0)
(4.19566 0.143627 0)
(4.08813 0.132417 0)
(3.98847 0.122445 0)
(3.89588 0.113529 0)
(3.80967 0.105521 0)
(3.72922 0.0982998 0)
(3.65401 0.0917616 0)
(3.58357 0.0858206 0)
(3.51748 0.0804041 0)
(3.45539 0.0754502 0)
(3.39697 0.0709061 0)
(3.34194 0.0667261 0)
(3.29002 0.062871 0)
(3.241 0.0593068 0)
(3.19466 0.0560035 0)
(3.15082 0.0529354 0)
(3.1093 0.0500794 0)
(3.06996 0.0474155 0)
(3.03264 0.0449258 0)
(2.99723 0.0425946 0)
(2.9636 0.0404075 0)
(2.93165 0.0383522 0)
(2.90129 0.0364172 0)
(2.87241 0.0345923 0)
(2.84495 0.0328685 0)
(2.81882 0.0312373 0)
(2.79396 0.0296912 0)
(2.77029 0.0282234 0)
(2.74777 0.0268277 0)
(2.72634 0.0254981 0)
(2.70595 0.0242296 0)
(2.68654 0.0230172 0)
(2.66809 0.0218563 0)
(2.65055 0.0207429 0)
(2.63387 0.019673 0)
(2.61804 0.018643 0)
(2.60302 0.0176494 0)
(2.58878 0.016689 0)
(2.5753 0.0157587 0)
(2.56255 0.0148555 0)
(2.55051 0.0139766 0)
(2.53917 0.0131192 0)
(2.5285 0.0122807 0)
(2.51849 0.0114583 0)
(2.50914 0.0106494 0)
(2.50042 0.00985131 0)
(2.49234 0.00906134 0)
(2.48488 0.00827667 0)
(2.47804 0.00749437 0)
(2.47182 0.00671136 0)
(2.46621 0.00592431 0)
(2.46123 0.00512966 0)
(2.45688 0.00432346 0)
(2.45317 0.00350131 0)
(2.4501 0.00265824 0)
(2.44771 0.00178859 0)
(2.44599 0.000885745 0)
(2.44499 -5.80613e-05 0)
(2.44474 -0.00105211 0)
(2.44526 -0.00210766 0)
(2.44662 -0.00323861 0)
(2.44888 -0.00446243 0)
(2.45209 -0.00580152 0)
(2.45636 -0.0072854 0)
(2.4618 -0.00895403 0)
(2.46855 -0.0108634 0)
(2.47681 -0.013095 0)
(2.48682 -0.0157721 0)
(2.49893 -0.0190887 0)
(2.51358 -0.0233611 0)
(2.53143 -0.0291211 0)
(2.55338 -0.0372819 0)
(2.58068 -0.04943 0)
(2.61494 -0.0683122 0)
(2.65811 -0.0985614 0)
(2.71197 -0.1477 0)
(2.77537 -0.227135 0)
(2.83199 -0.347994 0)
(10.0798 0.823408 0)
(10.5966 1.94653 0)
(11.0631 2.45333 0)
(11.2347 2.53062 0)
(11.1192 2.36881 0)
(10.8126 2.10356 0)
(10.4011 1.819 0)
(9.94646 1.55636 0)
(9.48807 1.32979 0)
(9.04779 1.14038 0)
(8.63587 0.984074 0)
(8.25593 0.855452 0)
(7.90801 0.749284 0)
(7.59039 0.661107 0)
(7.30061 0.587312 0)
(7.03599 0.52505 0)
(6.79394 0.47209 0)
(6.57206 0.426688 0)
(6.36818 0.387477 0)
(6.18039 0.353378 0)
(6.007 0.323535 0)
(5.84652 0.29726 0)
(5.69765 0.274 0)
(5.55925 0.253303 0)
(5.43033 0.2348 0)
(5.30999 0.218186 0)
(5.19748 0.203207 0)
(5.09209 0.189651 0)
(4.99322 0.177338 0)
(4.90033 0.166119 0)
(4.81293 0.155863 0)
(4.7306 0.14646 0)
(4.65294 0.137816 0)
(4.57961 0.129848 0)
(4.5103 0.122486 0)
(4.44471 0.115668 0)
(4.3826 0.109339 0)
(4.32372 0.103451 0)
(4.26787 0.0979627 0)
(4.21486 0.092837 0)
(4.1645 0.0880408 0)
(4.11664 0.0835446 0)
(4.07113 0.0793222 0)
(4.02783 0.0753502 0)
(3.98662 0.0716074 0)
(3.94738 0.0680747 0)
(3.91002 0.0647349 0)
(3.87442 0.0615725 0)
(3.8405 0.0585731 0)
(3.80818 0.055724 0)
(3.77738 0.0530132 0)
(3.74803 0.0504298 0)
(3.72007 0.047964 0)
(3.69343 0.0456064 0)
(3.66806 0.0433485 0)
(3.6439 0.0411824 0)
(3.62092 0.0391007 0)
(3.59906 0.0370964 0)
(3.57828 0.035163 0)
(3.55855 0.0332943 0)
(3.53984 0.0314844 0)
(3.52211 0.0297278 0)
(3.50533 0.0280189 0)
(3.48948 0.0263526 0)
(3.47453 0.0247238 0)
(3.46048 0.0231273 0)
(3.44729 0.0215581 0)
(3.43496 0.0200113 0)
(3.42347 0.0184816 0)
(3.41281 0.0169638 0)
(3.40298 0.0154525 0)
(3.39397 0.0139418 0)
(3.38578 0.0124256 0)
(3.37841 0.0108972 0)
(3.37188 0.00934937 0)
(3.36618 0.00777399 0)
(3.36134 0.00616194 0)
(3.35737 0.00450282 0)
(3.35429 0.00278458 0)
(3.35214 0.000993093 0)
(3.35095 -0.000888454 0)
(3.35077 -0.0028804 0)
(3.35166 -0.00500775 0)
(3.35368 -0.00730174 0)
(3.35691 -0.00980225 0)
(3.36147 -0.0125612 0)
(3.36748 -0.0156482 0)
(3.37511 -0.0191583 0)
(3.38455 -0.0232266 0)
(3.39606 -0.0280491 0)
(3.40999 -0.03392 0)
(3.42674 -0.0412903 0)
(3.44686 -0.0508656 0)
(3.47101 -0.0637587 0)
(3.4999 -0.0817214 0)
(3.53418 -0.107451 0)
(3.57404 -0.144896 0)
(3.6183 -0.199306 0)
(3.66254 -0.276223 0)
(3.69507 -0.376444 0)
(10.0426 0.546333 0)
(10.395 1.45872 0)
(10.8535 2.0517 0)
(11.2146 2.33764 0)
(11.3915 2.39326 0)
(11.3901 2.30064 0)
(11.2486 2.12914 0)
(11.01 1.92747 0)
(10.7128 1.72452 0)
(10.3862 1.53497 0)
(10.0504 1.36485 0)
(9.71793 1.2154 0)
(9.39653 1.08552 0)
(9.09028 0.97311 0)
(8.80108 0.875866 0)
(8.52949 0.791572 0)
(8.27523 0.71826 0)
(8.0376 0.654237 0)
(7.81563 0.598078 0)
(7.6083 0.548593 0)
(7.41453 0.504791 0)
(7.2333 0.465847 0)
(7.06363 0.431077 0)
(6.90461 0.399907 0)
(6.7554 0.371856 0)
(6.61524 0.34652 0)
(6.48342 0.323558 0)
(6.35931 0.302678 0)
(6.24233 0.283633 0)
(6.13194 0.266211 0)
(6.02768 0.250229 0)
(5.92909 0.235531 0)
(5.8358 0.221978 0)
(5.74743 0.209452 0)
(5.66366 0.197849 0)
(5.58418 0.187079 0)
(5.50872 0.177059 0)
(5.43702 0.16772 0)
(5.36886 0.159 0)
(5.30403 0.150841 0)
(5.24232 0.143194 0)
(5.18356 0.136015 0)
(5.12758 0.129264 0)
(5.07423 0.122906 0)
(5.02337 0.116907 0)
(4.97487 0.111238 0)
(4.9286 0.105874 0)
(4.88446 0.100789 0)
(4.84233 0.0959625 0)
(4.80214 0.091374 0)
(4.76378 0.087005 0)
(4.72717 0.0828387 0)
(4.69224 0.0788594 0)
(4.65891 0.0750528 0)
(4.62713 0.0714056 0)
(4.59682 0.0679052 0)
(4.56793 0.06454 0)
(4.54042 0.0612993 0)
(4.51422 0.0581725 0)
(4.48931 0.0551502 0)
(4.46563 0.0522229 0)
(4.44315 0.0493819 0)
(4.42183 0.0466187 0)
(4.40165 0.043925 0)
(4.38257 0.0412926 0)
(4.36458 0.0387138 0)
(4.34764 0.0361806 0)
(4.33175 0.033685 0)
(4.31688 0.0312192 0)
(4.30303 0.0287748 0)
(4.29018 0.0263433 0)
(4.27833 0.0239158 0)
(4.26747 0.0214828 0)
(4.25761 0.0190339 0)
(4.24875 0.0165581 0)
(4.2409 0.014043 0)
(4.23407 0.0114746 0)
(4.22828 0.00883724 0)
(4.22357 0.00611273 0)
(4.21994 0.00327987 0)
(4.21746 0.000313562 0)
(4.21616 -0.00281635 0)
(4.21609 -0.00614667 0)
(4.21735 -0.00972305 0)
(4.21999 -0.0136031 0)
(4.22415 -0.0178609 0)
(4.22992 -0.0225937 0)
(4.23749 -0.0279319 0)
(4.24702 -0.0340545 0)
(4.25874 -0.0412124 0)
(4.27293 -0.0497641 0)
(4.28991 -0.0602304 0)
(4.31001 -0.0733737 0)
(4.33357 -0.0903097 0)
(4.3608 -0.112645 0)
(4.39158 -0.142607 0)
(4.42505 -0.183046 0)
(4.45898 -0.23706 0)
(4.48888 -0.306687 0)
(4.50724 -0.389659 0)
(10.0236 0.385474 0)
(10.2537 1.09649 0)
(10.6178 1.64949 0)
(10.9919 2.01131 0)
(11.2853 2.19923 0)
(11.4636 2.24898 0)
(11.5245 2.20132 0)
(11.483 2.09349 0)
(11.3611 1.95425 0)
(11.1815 1.80323 0)
(10.9638 1.6527 0)
(10.7236 1.50955 0)
(10.4722 1.37717 0)
(10.2177 1.25676 0)
(9.96566 1.14828 0)
(9.71967 1.05106 0)
(9.482 0.964124 0)
(9.25394 0.886414 0)
(9.03613 0.81689 0)
(8.82878 0.754586 0)
(8.63182 0.698629 0)
(8.44497 0.648248 0)
(8.26786 0.602767 0)
(8.10005 0.561599 0)
(7.94107 0.524231 0)
(7.79044 0.490222 0)
(7.64767 0.459188 0)
(7.51232 0.430794 0)
(7.38393 0.404753 0)
(7.2621 0.380811 0)
(7.14641 0.358748 0)
(7.03651 0.338372 0)
(6.93205 0.319513 0)
(6.8327 0.302022 0)
(6.73816 0.285768 0)
(6.64816 0.270634 0)
(6.56243 0.256517 0)
(6.48073 0.243326 0)
(6.40284 0.230978 0)
(6.32854 0.219401 0)
(6.25766 0.208528 0)
(6.18999 0.198302 0)
(6.12539 0.188667 0)
(6.06368 0.179577 0)
(6.00473 0.170989 0)
(5.94841 0.162861 0)
(5.89457 0.15516 0)
(5.84311 0.147851 0)
(5.79393 0.140905 0)
(5.7469 0.134294 0)
(5.70195 0.127993 0)
(5.65898 0.121979 0)
(5.61791 0.11623 0)
(5.57867 0.110727 0)
(5.54118 0.10545 0)
(5.50537 0.100383 0)
(5.47118 0.0955085 0)
(5.43856 0.0908124 0)
(5.40745 0.0862799 0)
(5.37781 0.0818974 0)
(5.34958 0.077652 0)
(5.32273 0.0735312 0)
(5.29722 0.0695232 0)
(5.27301 0.0656162 0)
(5.25007 0.061799 0)
(5.22837 0.0580604 0)
(5.20789 0.0543894 0)
(5.18861 0.050775 0)
(5.17051 0.0472058 0)
(5.15357 0.0436704 0)
(5.13778 0.040157 0)
(5.12314 0.0366531 0)
(5.10963 0.0331456 0)
(5.09726 0.0296203 0)
(5.08603 0.0260619 0)
(5.07595 0.0224535 0)
(5.06703 0.0187762 0)
(5.05928 0.0150087 0)
(5.05274 0.0111266 0)
(5.04742 0.00710167 0)
(5.04337 0.00290052 0)
(5.04063 -0.00151651 0)
(5.03925 -0.00619738 0)
(5.03931 -0.0112009 0)
(5.04087 -0.0166004 0)
(5.04404 -0.0224886 0)
(5.04892 -0.0289846 0)
(5.05564 -0.0362446 0)
(5.06436 -0.044476 0)
(5.07524 -0.0539589 0)
(5.08847 -0.0650761 0)
(5.10423 -0.0783549 0)
(5.12268 -0.094522 0)
(5.14386 -0.114568 0)
(5.16762 -0.139806 0)
(5.1934 -0.171885 0)
(5.21992 -0.212654 0)
(5.24489 -0.263723 0)
(5.26468 -0.325452 0)
(5.27463 -0.395178 0)
(10.0134 0.283939 0)
(10.1646 0.837151 0)
(10.4345 1.31439 0)
(10.7555 1.67877 0)
(11.0609 1.92461 0)
(11.3106 2.06223 0)
(11.485 2.11043 0)
(11.5792 2.09138 0)
(11.5986 2.02613 0)
(11.5544 1.93215 0)
(11.4595 1.82266 0)
(11.3263 1.70701 0)
(11.1658 1.59139 0)
(10.9869 1.47963 0)
(10.7967 1.37389 0)
(10.6006 1.27524 0)
(10.4026 1.18401 0)
(10.2057 1.10013 0)
(10.0119 1.02326 0)
(9.82274 0.952929 0)
(9.63908 0.888626 0)
(9.46157 0.829824 0)
(9.29056 0.776012 0)
(9.12619 0.726712 0)
(8.9685 0.681485 0)
(8.8174 0.63993 0)
(8.67275 0.601685 0)
(8.53437 0.566427 0)
(8.40204 0.533865 0)
(8.27553 0.50374 0)
(8.1546 0.475821 0)
(8.03901 0.449902 0)
(7.92852 0.425798 0)
(7.82289 0.403344 0)
(7.72189 0.382394 0)
(7.62532 0.362816 0)
(7.53295 0.344491 0)
(7.44459 0.327313 0)
(7.36004 0.311185 0)
(7.27913 0.296022 0)
(7.20168 0.281746 0)
(7.12753 0.268285 0)
(7.05654 0.255577 0)
(6.98855 0.243561 0)
(6.92344 0.232185 0)
(6.86107 0.221401 0)
(6.80132 0.211165 0)
(6.74408 0.201435 0)
(6.68925 0.192174 0)
(6.63673 0.183348 0)
(6.58642 0.174926 0)
(6.53824 0.166877 0)
(6.4921 0.159174 0)
(6.44792 0.151793 0)
(6.40564 0.144709 0)
(6.36518 0.1379 0)
(6.32648 0.131346 0)
(6.28949 0.125028 0)
(6.25415 0.118925 0)
(6.22041 0.113022 0)
(6.18821 0.107301 0)
(6.15753 0.101747 0)
(6.12831 0.0963429 0)
(6.10052 0.0910747 0)
(6.07413 0.0859276 0)
(6.0491 0.0808869 0)
(6.02542 0.0759385 0)
(6.00305 0.0710679 0)
(5.98197 0.0662606 0)
(5.96218 0.0615018 0)
(5.94365 0.0567762 0)
(5.92638 0.0520678 0)
(5.91035 0.0473597 0)
(5.89557 0.0426338 0)
(5.88203 0.0378707 0)
(5.86975 0.0330489 0)
(5.85873 0.0281447 0)
(5.84898 0.0231315 0)
(5.84053 0.0179789 0)
(5.8334 0.0126519 0)
(5.82763 0.00710992 0)
(5.82324 0.0013048 0)
(5.8203 -0.00482092 0)
(5.81885 -0.0113368 0)
(5.81897 -0.0183284 0)
(5.82072 -0.0259016 0)
(5.8242 -0.03419 0)
(5.82951 -0.0433639 0)
(5.83673 -0.0536426 0)
(5.84599 -0.0653114 0)
(5.85738 -0.0787439 0)
(5.87096 -0.0944294 0)
(5.88673 -0.113004 0)
(5.90454 -0.135277 0)
(5.92402 -0.162244 0)
(5.94442 -0.195031 0)
(5.96445 -0.234741 0)
(5.9821 -0.28208 0)
(5.99471 -0.336709 0)
(5.99936 -0.39634 0)
(10.0083 0.218058 0)
(10.1103 0.654782 0)
(10.3067 1.05504 0)
(10.5624 1.38949 0)
(10.8344 1.6466 0)
(11.0903 1.82582 0)
(11.3082 1.93347 0)
(11.4749 1.9804 0)
(11.5857 1.97926 0)
(11.6419 1.94242 0)
(11.6487 1.88077 0)
(11.6133 1.80319 0)
(11.5432 1.71653 0)
(11.4458 1.62581 0)
(11.3275 1.53455 0)
(11.1939 1.44513 0)
(11.0497 1.35902 0)
(10.8985 1.27713 0)
(10.7433 1.19989 0)
(10.5864 1.12746 0)
(10.4297 1.05982 0)
(10.2743 0.996795 0)
(10.1214 0.938171 0)
(9.97169 0.883682 0)
(9.82568 0.833049 0)
(9.68373 0.785992 0)
(9.54608 0.742236 0)
(9.41287 0.701523 0)
(9.28417 0.663608 0)
(9.15996 0.628263 0)
(9.04022 0.59528 0)
(8.92487 0.564466 0)
(8.81383 0.535643 0)
(8.70699 0.508652 0)
(8.60421 0.483345 0)
(8.50539 0.459587 0)
(8.41039 0.437257 0)
(8.31907 0.416243 0)
(8.23131 0.396444 0)
(8.14697 0.377767 0)
(8.06592 0.360127 0)
(7.98805 0.343446 0)
(7.91323 0.327653 0)
(7.84135 0.312684 0)
(7.77229 0.298479 0)
(7.70595 0.284983 0)
(7.64222 0.272145 0)
(7.58101 0.259918 0)
(7.52223 0.248259 0)
(7.46578 0.237129 0)
(7.41158 0.22649 0)
(7.35955 0.216308 0)
(7.30962 0.206551 0)
(7.26171 0.197188 0)
(7.21576 0.188192 0)
(7.1717 0.179536 0)
(7.12948 0.171195 0)
(7.08903 0.163147 0)
(7.05031 0.155367 0)
(7.01326 0.147836 0)
(6.97784 0.140533 0)
(6.94401 0.133438 0)
(6.91172 0.126533 0)
(6.88095 0.119799 0)
(6.85165 0.113218 0)
(6.82381 0.106773 0)
(6.79738 0.100446 0)
(6.77234 0.0942195 0)
(6.74869 0.0880755 0)
(6.72639 0.0819961 0)
(6.70543 0.0759627 0)
(6.68581 0.0699557 0)
(6.66751 0.0639547 0)
(6.65052 0.057938 0)
(6.63486 0.0518821 0)
(6.62052 0.0457613 0)
(6.6075 0.0395474 0)
(6.59582 0.0332089 0)
(6.5855 0.0267102 0)
(6.57656 0.0200108 0)
(6.56902 0.0130636 0)
(6.56291 0.00581376 0)
(6.55827 -0.00180338 0)
(6.55515 -0.00986514 0)
(6.5536 -0.0184648 0)
(6.55367 -0.0277161 0)
(6.55541 -0.037759 0)
(6.5589 -0.0487671 0)
(6.5642 -0.0609574 0)
(6.57133 -0.0746022 0)
(6.58033 -0.0900429 0)
(6.59117 -0.107706 0)
(6.60372 -0.128114 0)
(6.61773 -0.151893 0)
(6.63273 -0.17975 0)
(6.64795 -0.212407 0)
(6.66223 -0.25046 0)
(6.67397 -0.294114 0)
(6.68127 -0.342791 0)
(6.68228 -0.394701 0)
(10.0055 0.173579 0)
(10.0768 0.525194 0)
(10.2204 0.85887 0)
(10.4186 1.15366 0)
(10.6449 1.3985 0)
(10.8767 1.58925 0)
(11.0959 1.72648 0)
(11.2884 1.81438 0)
(11.4455 1.85947 0)
(11.563 1.86925 0)
(11.6406 1.85128 0)
(11.6802 1.81249 0)
(11.6857 1.75886 0)
(11.6615 1.6953 0)
(11.6122 1.6257 0)
(11.5424 1.55301 0)
(11.4561 1.47942 0)
(11.3569 1.4065 0)
(11.248 1.33531 0)
(11.132 1.26659 0)
(11.0111 1.20077 0)
(10.8871 1.13809 0)
(10.7614 1.07865 0)
(10.6352 1.02247 0)
(10.5094 0.969467 0)
(10.3848 0.919543 0)
(10.262 0.872558 0)
(10.1413 0.828363 0)
(10.0232 0.786798 0)
(9.90779 0.747703 0)
(9.79537 0.710922 0)
(9.68602 0.676302 0)
(9.57982 0.643699 0)
(9.47679 0.612975 0)
(9.37695 0.584 0)
(9.28028 0.556654 0)
(9.18676 0.530824 0)
(9.09634 0.506405 0)
(9.00896 0.483298 0)
(8.92456 0.461414 0)
(8.84308 0.440668 0)
(8.76443 0.420983 0)
(8.68855 0.402286 0)
(8.61536 0.384509 0)
(8.54479 0.367592 0)
(8.47675 0.351476 0)
(8.41118 0.336107 0)
(8.348 0.321436 0)
(8.28714 0.307415 0)
(8.22852 0.294003 0)
(8.17209 0.281157 0)
(8.11778 0.268841 0)
(8.06552 0.257018 0)
(8.01525 0.245655 0)
(7.96693 0.234721 0)
(7.92048 0.224186 0)
(7.87587 0.214021 0)
(7.83304 0.204201 0)
(7.79194 0.194699 0)
(7.75253 0.185491 0)
(7.71477 0.176554 0)
(7.67862 0.167866 0)
(7.64405 0.159404 0)
(7.61102 0.151148 0)
(7.5795 0.143075 0)
(7.54946 0.135167 0)
(7.52088 0.127402 0)
(7.49373 0.119759 0)
(7.468 0.112219 0)
(7.44366 0.10476 0)
(7.42071 0.09736 0)
(7.39912 0.0899967 0)
(7.3789 0.0826463 0)
(7.36004 0.0752835 0)
(7.34253 0.0678816 0)
(7.32638 0.060411 0)
(7.31158 0.0528397 0)
(7.29816 0.045132 0)
(7.28611 0.0372481 0)
(7.27546 0.0291427 0)
(7.26623 0.0207643 0)
(7.25843 0.0120531 0)
(7.2521 0.00293969 0)
(7.24726 -0.00665784 0)
(7.24396 -0.0168364 0)
(7.24221 -0.027712 0)
(7.24207 -0.039424 0)
(7.24355 -0.0521408 0)
(7.24667 -0.0660666 0)
(7.25142 -0.0814484 0)
(7.25777 -0.0985837 0)
(7.26562 -0.117826 0)
(7.27478 -0.139587 0)
(7.28494 -0.164325 0)
(7.29561 -0.192518 0)
(7.30609 -0.224598 0)
(7.3154 -0.260838 0)
(7.32232 -0.301183 0)
(7.32551 -0.345024 0)
(7.32376 -0.391001 0)
(10.004 0.142126 0)
(10.0556 0.430958 0)
(10.1623 0.710526 0)
(10.3151 0.966375 0)
(10.4981 1.18955 0)
(10.6962 1.37539 0)
(10.8963 1.52229 0)
(11.0866 1.63118 0)
(11.2581 1.70491 0)
(11.4048 1.74752 0)
(11.5232 1.76365 0)
(11.6121 1.75806 0)
(11.6721 1.73524 0)
(11.7051 1.69926 0)
(11.7133 1.65361 0)
(11.6998 1.60122 0)
(11.6674 1.54444 0)
(11.6191 1.48514 0)
(11.5574 1.42474 0)
(11.4849 1.36435 0)
(11.4037 1.30476 0)
(11.3157 1.24655 0)
(11.2225 1.1901 0)
(11.1254 1.13567 0)
(11.0258 1.08343 0)
(10.9245 1.03346 0)
(10.8223 0.985763 0)
(10.7201 0.940335 0)
(10.6182 0.897124 0)
(10.5171 0.856059 0)
(10.4173 0.81706 0)
(10.319 0.780036 0)
(10.2225 0.744892 0)
(10.1279 0.711532 0)
(10.0354 0.679861 0)
(9.945 0.649784 0)
(9.8569 0.621212 0)
(9.77109 0.594055 0)
(9.68762 0.568231 0)
(9.60649 0.54366 0)
(9.52771 0.520266 0)
(9.45126 0.497978 0)
(9.37712 0.476729 0)
(9.30527 0.456455 0)
(9.23568 0.437097 0)
(9.16831 0.418597 0)
(9.10313 0.400904 0)
(9.04008 0.383968 0)
(8.97913 0.36774 0)
(8.92023 0.352178 0)
(8.86334 0.33724 0)
(8.80842 0.322886 0)
(8.75541 0.309079 0)
(8.70429 0.295784 0)
(8.655 0.282968 0)
(8.6075 0.270599 0)
(8.56176 0.258646 0)
(8.51773 0.247081 0)
(8.47538 0.235876 0)
(8.43467 0.225005 0)
(8.39558 0.214442 0)
(8.35806 0.204162 0)
(8.32209 0.194141 0)
(8.28764 0.184355 0)
(8.25468 0.174781 0)
(8.22319 0.165397 0)
(8.19315 0.156179 0)
(8.16454 0.147104 0)
(8.13734 0.138149 0)
(8.11154 0.12929 0)
(8.08712 0.120503 0)
(8.06407 0.111763 0)
(8.04239 0.103043 0)
(8.02206 0.0943146 0)
(8.00309 0.0855486 0)
(7.98548 0.0767123 0)
(7.96922 0.0677705 0)
(7.95433 0.0586842 0)
(7.94081 0.0494104 0)
(7.92866 0.0399007 0)
(7.91792 0.0301002 0)
(7.90858 0.0199464 0)
(7.90067 0.00936753 0)
(7.8942 -0.0017198 0)
(7.88919 -0.0134125 0)
(7.88566 -0.0258243 0)
(7.88361 -0.0390886 0)
(7.88304 -0.0533624 0)
(7.88394 -0.0688304 0)
(7.88626 -0.0857083 0)
(7.88992 -0.104245 0)
(7.89478 -0.124724 0)
(7.90062 -0.147455 0)
(7.90712 -0.172761 0)
(7.91382 -0.200947 0)
(7.9201 -0.232245 0)
(7.92517 -0.266739 0)
(7.92813 -0.304247 0)
(7.928 -0.344209 0)
(7.924 -0.385597 0)
(10.003 0.118966 0)
(10.0416 0.360646 0)
(10.1226 0.597182 0)
(10.2413 0.818588 0)
(10.3879 1.01803 0)
(10.5528 1.19137 0)
(10.7268 1.33647 0)
(10.9012 1.45287 0)
(11.0682 1.54152 0)
(11.222 1.60438 0)
(11.3581 1.64407 0)
(11.4738 1.66355 0)
(11.5677 1.66589 0)
(11.6397 1.65409 0)
(11.6904 1.63092 0)
(11.721 1.59888 0)
(11.7333 1.56012 0)
(11.7291 1.51647 0)
(11.7103 1.46945 0)
(11.6788 1.42029 0)
(11.6364 1.36999 0)
(11.5848 1.31932 0)
(11.5255 1.26888 0)
(11.4599 1.21914 0)
(11.3892 1.17042 0)
(11.3145 1.12298 0)
(11.2366 1.07699 0)
(11.1565 1.03255 0)
(11.0748 0.989723 0)
(10.9921 0.94855 0)
(10.9089 0.909028 0)
(10.8256 0.87114 0)
(10.7427 0.834853 0)
(10.6603 0.800123 0)
(10.5788 0.766899 0)
(10.4983 0.735126 0)
(10.419 0.704744 0)
(10.3412 0.675692 0)
(10.2648 0.64791 0)
(10.19 0.621336 0)
(10.1168 0.59591 0)
(10.0454 0.571576 0)
(9.97565 0.548275 0)
(9.90768 0.525953 0)
(9.8415 0.504558 0)
(9.77711 0.484039 0)
(9.7145 0.464349 0)
(9.65368 0.44544 0)
(9.59463 0.42727 0)
(9.53734 0.409795 0)
(9.48179 0.392975 0)
(9.42797 0.376773 0)
(9.37585 0.361152 0)
(9.32541 0.346077 0)
(9.27662 0.331513 0)
(9.22947 0.31743 0)
(9.18392 0.303796 0)
(9.13996 0.290582 0)
(9.09755 0.277758 0)
(9.05668 0.265298 0)
(9.01732 0.253174 0)
(8.97945 0.241359 0)
(8.94305 0.22983 0)
(8.9081 0.218559 0)
(8.87458 0.207523 0)
(8.84246 0.196696 0)
(8.81174 0.186054 0)
(8.7824 0.175573 0)
(8.75443 0.165225 0)
(8.72781 0.154988 0)
(8.70254 0.144832 0)
(8.6786 0.134732 0)
(8.65599 0.124659 0)
(8.63471 0.114582 0)
(8.61475 0.104469 0)
(8.59611 0.0942851 0)
(8.57879 0.0839932 0)
(8.5628 0.0735521 0)
(8.54814 0.0629165 0)
(8.53482 0.052036 0)
(8.52283 0.0408544 0)
(8.5122 0.0293081 0)
(8.50292 0.0173251 0)
(8.49501 0.00482324 0)
(8.48847 -0.00829149 0)
(8.48328 -0.0221269 0)
(8.47945 -0.0368068 0)
(8.47695 -0.0524732 0)
(8.47574 -0.0692877 0)
(8.47574 -0.0874327 0)
(8.47685 -0.107111 0)
(8.4789 -0.12854 0)
(8.48167 -0.151948 0)
(8.48485 -0.177549 0)
(8.48802 -0.205526 0)
(8.49067 -0.235982 0)
(8.49217 -0.268888 0)
(8.49184 -0.304016 0)
(8.48899 -0.340878 0)
(8.48309 -0.378689 0)
(10.0023 0.101332 0)
(10.0321 0.306837 0)
(10.095 0.509213 0)
(10.1884 0.701446 0)
(10.3061 0.878399 0)
(10.442 1.03667 0)
(10.5899 1.17418 0)
(10.7434 1.29004 0)
(10.8967 1.38431 0)
(11.0446 1.45783 0)
(11.183 1.51198 0)
(11.3088 1.5485 0)
(11.4198 1.56935 0)
(11.5146 1.5766 0)
(11.5928 1.57225 0)
(11.6544 1.55824 0)
(11.7 1.53635 0)
(11.7304 1.50815 0)
(11.7467 1.47504 0)
(11.7503 1.43823 0)
(11.7423 1.39874 0)
(11.7241 1.35742 0)
(11.6969 1.31497 0)
(11.6618 1.27195 0)
(11.6201 1.22884 0)
(11.5726 1.18599 0)
(11.5203 1.14368 0)
(11.464 1.10215 0)
(11.4045 1.06153 0)
(11.3423 1.02197 0)
(11.2782 0.983538 0)
(11.2125 0.946289 0)
(11.1458 0.910255 0)
(11.0784 0.875448 0)
(11.0106 0.841868 0)
(10.9427 0.8095 0)
(10.8751 0.778322 0)
(10.8079 0.748308 0)
(10.7412 0.719423 0)
(10.6753 0.691631 0)
(10.6103 0.664894 0)
(10.5462 0.639171 0)
(10.4833 0.614422 0)
(10.4215 0.590605 0)
(10.3609 0.567679 0)
(10.3016 0.545604 0)
(10.2436 0.524339 0)
(10.187 0.503845 0)
(10.1317 0.484084 0)
(10.0778 0.46502 0)
(10.0253 0.446615 0)
(9.97426 0.428835 0)
(9.9246 0.411647 0)
(9.87636 0.395016 0)
(9.82954 0.378912 0)
(9.78411 0.363304 0)
(9.74009 0.348161 0)
(9.69746 0.333454 0)
(9.65621 0.319156 0)
(9.61633 0.305238 0)
(9.57781 0.291673 0)
(9.54064 0.278436 0)
(9.50482 0.265499 0)
(9.47032 0.252836 0)
(9.43714 0.240423 0)
(9.40526 0.228233 0)
(9.37469 0.21624 0)
(9.34541 0.204419 0)
(9.3174 0.192743 0)
(9.29068 0.181185 0)
(9.26522 0.169718 0)
(9.24103 0.158312 0)
(9.2181 0.146937 0)
(9.19642 0.135562 0)
(9.176 0.124152 0)
(9.15684 0.112672 0)
(9.13893 0.101082 0)
(9.12228 0.0893408 0)
(9.10689 0.0774017 0)
(9.09277 0.0652137 0)
(9.0799 0.0527203 0)
(9.0683 0.0398588 0)
(9.05797 0.0265588 0)
(9.04889 0.0127414 0)
(9.04107 -0.00168213 0)
(9.03449 -0.0168116 0)
(9.02911 -0.0327588 0)
(9.0249 -0.0496486 0)
(9.02181 -0.0676191 0)
(9.01973 -0.0868205 0)
(9.01855 -0.107413 0)
(9.0181 -0.12956 0)
(9.01816 -0.15342 0)
(9.01844 -0.179131 0)
(9.01859 -0.206788 0)
(9.01818 -0.236412 0)
(9.01671 -0.267917 0)
(9.01368 -0.301065 0)
(9.0086 -0.335441 0)
(9.00109 -0.370438 0)
(10.0018 0.0875244 0)
(10.0254 0.26467 0)
(10.0752 0.439727 0)
(10.1498 0.607643 0)
(10.2452 0.764539 0)
(10.3573 0.90768 0)
(10.4818 1.03526 0)
(10.6143 1.14629 0)
(10.7505 1.2405 0)
(10.8863 1.31815 0)
(11.0182 1.37993 0)
(11.1433 1.42685 0)
(11.2594 1.46012 0)
(11.3646 1.48109 0)
(11.4577 1.49115 0)
(11.5383 1.49172 0)
(11.606 1.48413 0)
(11.661 1.46967 0)
(11.7036 1.44951 0)
(11.7346 1.42469 0)
(11.7546 1.39616 0)
(11.7645 1.36474 0)
(11.7652 1.33113 0)
(11.7575 1.29594 0)
(11.7423 1.25967 0)
(11.7205 1.22276 0)
(11.6928 1.18556 0)
(11.66 1.14835 0)
(11.6227 1.11138 0)
(11.5817 1.07483 0)
(11.5375 1.03884 0)
(11.4906 1.00354 0)
(11.4414 0.969015 0)
(11.3905 0.935322 0)
(11.3381 0.902511 0)
(11.2847 0.870609 0)
(11.2305 0.839633 0)
(11.1758 0.809588 0)
(11.1208 0.780474 0)
(11.0657 0.752278 0)
(11.0107 0.724988 0)
(10.956 0.698583 0)
(10.9017 0.673041 0)
(10.8479 0.648338 0)
(10.7948 0.624446 0)
(10.7424 0.601338 0)
(10.6908 0.578984 0)
(10.64 0.557356 0)
(10.5902 0.536423 0)
(10.5413 0.516156 0)
(10.4935 0.496524 0)
(10.4466 0.477499 0)
(10.4009 0.45905 0)
(10.3563 0.44115 0)
(10.3128 0.42377 0)
(10.2704 0.406881 0)
(10.2291 0.390456 0)
(10.1891 0.374468 0)
(10.1501 0.358891 0)
(10.1124 0.343698 0)
(10.0758 0.328862 0)
(10.0403 0.314358 0)
(10.0061 0.30016 0)
(9.97298 0.286242 0)
(9.94105 0.27258 0)
(9.91029 0.259146 0)
(9.8807 0.245915 0)
(9.85227 0.232861 0)
(9.82501 0.219957 0)
(9.7989 0.207175 0)
(9.77396 0.194486 0)
(9.75017 0.181861 0)
(9.72755 0.16927 0)
(9.70608 0.156678 0)
(9.68578 0.144054 0)
(9.66663 0.131358 0)
(9.64865 0.118552 0)
(9.63183 0.105594 0)
(9.61618 0.0924372 0)
(9.60169 0.0790311 0)
(9.58835 0.0653204 0)
(9.57618 0.0512444 0)
(9.56516 0.0367361 0)
(9.55527 0.0217211 0)
(9.54651 0.00611768 0)
(9.53885 -0.0101644 0)
(9.53224 -0.0272241 0)
(9.52664 -0.0451688 0)
(9.52198 -0.0641136 0)
(9.51816 -0.0841795 0)
(9.51505 -0.105489 0)
(9.51249 -0.128162 0)
(9.51027 -0.152305 0)
(9.50814 -0.177997 0)
(9.50579 -0.205276 0)
(9.50287 -0.234114 0)
(9.49901 -0.264396 0)
(9.49381 -0.295895 0)
(9.48692 -0.328261 0)
(9.47807 -0.361019 0)
(10.0015 0.0764593 0)
(10.0206 0.230917 0)
(10.0608 0.383867 0)
(10.1213 0.531568 0)
(10.1995 0.67105 0)
(10.2924 0.800121 0)
(10.3972 0.917249 0)
(10.5107 1.02151 0)
(10.6297 1.11249 0)
(10.7512 1.1902 0)
(10.8723 1.25498 0)
(10.9908 1.30739 0)
(11.1043 1.3482 0)
(11.2112 1.37826 0)
(11.3101 1.39854 0)
(11.4001 1.41001 0)
(11.4805 1.41367 0)
(11.551 1.41049 0)
(11.6114 1.40138 0)
(11.662 1.38722 0)
(11.7029 1.3688 0)
(11.7347 1.34684 0)
(11.7578 1.32199 0)
(11.7729 1.29482 0)
(11.7804 1.26585 0)
(11.781 1.23551 0)
(11.7754 1.20417 0)
(11.7641 1.17217 0)
(11.7478 1.13978 0)
(11.7269 1.10722 0)
(11.7021 1.07469 0)
(11.6737 1.04235 0)
(11.6422 1.01033 0)
(11.6081 0.978735 0)
(11.5718 0.947651 0)
(11.5335 0.917142 0)
(11.4936 0.887258 0)
(11.4524 0.858038 0)
(11.4102 0.829506 0)
(11.3671 0.80168 0)
(11.3235 0.774568 0)
(11.2794 0.748174 0)
(11.2352 0.722494 0)
(11.1908 0.697521 0)
(11.1464 0.673243 0)
(11.1023 0.649648 0)
(11.0584 0.626718 0)
(11.0149 0.604436 0)
(10.9719 0.582782 0)
(10.9293 0.561734 0)
(10.8874 0.541272 0)
(10.8462 0.521372 0)
(10.8056 0.502011 0)
(10.7658 0.483167 0)
(10.7268 0.464815 0)
(10.6886 0.446932 0)
(10.6513 0.429493 0)
(10.6148 0.412476 0)
(10.5793 0.395855 0)